# vtk DataFile Version 3.0
Created with pputils
ASCII

DATASET UNSTRUCTURED_GRID
POINTS 2337 float
2477.999 5712.999 0.000
2494.089 5717.499 0.000
2505.499 5711.499 0.000
2422.999 5657.499 0.000
2436.909 5659.499 0.000
2477.189 5698.499 0.000
2492.979 5702.229 0.000
2447.239 5649.109 0.000
2418.499 5592.999 0.000
2421.689 5643.999 0.000
2435.179 5640.039 0.000
2450.909 5660.999 0.000
2476.809 5678.499 0.000
2495.069 5683.859 0.000
2510.089 5692.499 0.000
2439.809 5625.719 0.000
2459.609 5648.479 0.000
2450.769 5635.159 0.000
2429.689 5592.499 0.000
2418.809 5605.999 0.000
2444.909 5590.999 0.000
2419.999 5625.999 0.000
2465.599 5662.999 0.000
2476.499 5664.499 0.000
2495.349 5660.739 0.000
2515.689 5673.499 0.000
2458.879 5619.609 0.000
2466.069 5634.689 0.000
2438.889 5608.989 0.000
2476.639 5647.749 0.000
2521.409 5653.999 0.000
2504.449 5647.129 0.000
2417.409 5581.499 0.000
2479.429 5623.619 0.000
2456.129 5603.039 0.000
2464.909 5590.499 0.000
2493.919 5639.239 0.000
2527.189 5634.999 0.000
2506.079 5632.259 0.000
2416.409 5568.999 0.000
2415.309 5554.499 0.000
2430.099 5580.999 0.000
2484.909 5589.499 0.000
2473.039 5605.119 0.000
2497.309 5620.649 0.000
2513.799 5621.909 0.000
2432.679 5566.139 0.000
2414.189 5534.499 0.000
2450.099 5579.999 0.000
2490.099 5605.419 0.000
2532.999 5615.999 0.000
2509.009 5608.159 0.000
2413.909 5517.499 0.000
2453.419 5564.119 0.000
2439.729 5549.939 0.000
2427.969 5534.229 0.000
2469.999 5578.499 0.000
2475.349 5562.179 0.000
2500.499 5587.999 0.000
2519.379 5596.979 0.000
2437.189 5516.499 0.000
2460.329 5547.609 0.000
2447.469 5532.419 0.000
2501.999 5576.999 0.000
2486.189 5577.499 0.000
2538.809 5596.999 0.000
2520.809 5579.709 0.000
2457.099 5514.499 0.000
2469.049 5530.779 0.000
2494.149 5561.649 0.000
2512.699 5561.639 0.000
2483.419 5545.799 0.000
2544.689 5577.499 0.000
2531.899 5561.329 0.000
2477.099 5513.499 0.000
2492.049 5528.479 0.000
2504.589 5545.339 0.000
2550.499 5558.499 0.000
2539.319 5545.429 0.000
2522.739 5544.799 0.000
2496.999 5511.999 0.000
2514.229 5528.959 0.000
2556.309 5539.499 0.000
2538.019 5527.569 0.000
2511.689 5493.999 0.000
2544.589 5506.059 0.000
2522.689 5510.999 0.000
2556.089 5243.499 0.000
2546.409 5260.499 0.000
2551.089 5242.499 0.000
2531.909 5237.499 0.000
2514.189 5245.999 0.000
2562.189 5520.499 0.000
2511.809 5479.499 0.000
2526.589 5493.999 0.000
2590.309 5254.999 0.000
2572.589 5249.499 0.000
2551.909 5256.499 0.000
2529.419 5254.499 0.000
2539.909 5279.499 0.000
2508.189 5265.499 0.000
2567.999 5500.999 0.000
2531.999 5479.499 0.000
2458.909 5413.499 0.000
2586.999 5265.499 0.000
2566.279 5270.449 0.000
2533.689 5298.499 0.000
2524.999 5277.539 0.000
2502.089 5284.499 0.000
2550.069 5482.269 0.000
2541.499 5454.499 0.000
2573.809 5481.999 0.000
2471.359 5416.169 0.000
2463.689 5398.169 0.000
2545.689 5275.499 0.000
2580.809 5284.499 0.000
2559.649 5291.169 0.000
2515.279 5299.809 0.000
2495.999 5303.499 0.000
2572.879 5449.959 0.000
2579.589 5462.999 0.000
2561.579 5457.819 0.000
2547.909 5435.499 0.000
2469.759 5380.659 0.000
2483.909 5415.499 0.000
2486.209 5395.659 0.000
2539.409 5294.499 0.000
2574.589 5303.499 0.000
2554.129 5309.009 0.000
2477.099 5360.499 0.000
2527.589 5317.499 0.000
2507.469 5321.229 0.000
2483.409 5341.499 0.000
2489.809 5322.499 0.000
2585.409 5443.499 0.000
2551.189 5424.499 0.000
2564.919 5435.509 0.000
2542.999 5421.999 0.000
2488.549 5376.359 0.000
2523.689 5416.999 0.000
2503.909 5415.499 0.000
2533.189 5313.499 0.000
2568.409 5322.499 0.000
2500.589 5360.459 0.000
2522.909 5331.499 0.000
2502.649 5338.049 0.000
2591.189 5424.499 0.000
2578.329 5421.569 0.000
2557.469 5415.519 0.000
2538.989 5407.179 0.000
2507.439 5387.729 0.000
2520.879 5403.739 0.000
2562.309 5341.499 0.000
2547.669 5328.449 0.000
2526.999 5332.499 0.000
2516.689 5350.999 0.000
2596.999 5405.499 0.000
2573.909 5406.679 0.000
2532.269 5390.249 0.000
2524.129 5369.989 0.000
2556.659 5394.599 0.000
2557.089 5357.499 0.000
2540.989 5351.699 0.000
2579.169 5388.539 0.000
2602.809 5386.499 0.000
2551.089 5376.499 0.000
2565.619 5376.529 0.000
2608.499 5366.999 0.000
2584.849 5366.359 0.000
2596.689 5351.809 0.000
2567.589 5337.999 0.000
2560.499 5358.999 0.000
2614.309 5347.999 0.000
2577.689 5340.999 0.000
2600.139 5335.459 0.000
2628.499 5335.999 0.000
2619.809 5334.499 0.000
2586.409 5316.499 0.000
2610.059 5317.329 0.000
2633.089 5321.999 0.000
2638.499 5302.499 0.000
2592.689 5297.499 0.000
2628.189 5297.999 0.000
2598.999 5278.499 0.000
2611.189 5239.999 0.000
2605.189 5259.499 0.000
2635.809 5270.499 0.000
2622.619 5266.609 0.000
2625.849 5241.659 0.000
2641.689 5251.499 0.000
2617.089 5220.999 0.000
2647.589 5232.499 0.000
2625.809 5204.999 0.000
2635.499 5219.809 0.000
2653.499 5213.499 0.000
2642.539 5201.119 0.000
2602.909 5160.499 0.000
2572.589 5145.999 0.000
2659.409 5193.999 0.000
2633.589 5186.499 0.000
2612.909 5169.499 0.000
2621.809 5173.499 0.000
2586.189 5152.499 0.000
2607.409 5149.999 0.000
2580.069 5131.279 0.000
2558.089 5138.999 0.000
2558.609 5125.609 0.000
2647.899 5186.549 0.000
2641.499 5167.999 0.000
2634.089 5174.499 0.000
2606.909 5161.499 0.000
2622.019 5163.019 0.000
2614.499 5134.499 0.000
2598.129 5131.879 0.000
2570.579 5112.839 0.000
2590.039 5109.439 0.000
2542.999 5131.999 0.000
2540.189 5117.699 0.000
2647.809 5151.999 0.000
2665.309 5174.999 0.000
2638.499 5163.999 0.000
2610.909 5150.999 0.000
2606.799 5117.679 0.000
2611.799 5096.549 0.000
2550.719 5102.209 0.000
2573.929 5093.159 0.000
2591.059 5088.039 0.000
2524.909 5123.499 0.000
2528.999 5099.189 0.000
2671.189 5155.999 0.000
2627.879 5150.089 0.000
2643.189 5152.499 0.000
2657.049 5135.519 0.000
2617.809 5135.999 0.000
2622.589 5116.999 0.000
2616.429 5079.119 0.000
2601.409 5075.469 0.000
2545.259 5084.529 0.000
2561.789 5082.689 0.000
2580.589 5071.669 0.000
2506.909 5114.999 0.000
2511.289 5087.939 0.000
2527.349 5070.699 0.000
2677.089 5136.999 0.000
2634.809 5133.999 0.000
2624.999 5120.499 0.000
2631.269 5100.749 0.000
2629.179 5086.259 0.000
2599.599 5059.889 0.000
2630.059 5071.199 0.000
2615.329 5065.559 0.000
2537.039 5054.679 0.000
2554.729 5062.469 0.000
2576.529 5051.779 0.000
2561.999 5045.909 0.000
2592.459 5038.919 0.000
2490.679 5090.169 0.000
2502.499 5064.649 0.000
2666.859 5121.609 0.000
2644.499 5112.499 0.000
2648.289 5091.419 0.000
2643.959 5070.769 0.000
2614.909 5046.009 0.000
2631.029 5054.829 0.000
2605.149 5025.919 0.000
2521.169 5043.569 0.000
2509.039 5022.099 0.000
2546.579 5038.879 0.000
2586.089 5020.399 0.000
2570.169 5030.499 0.000
2478.009 5063.109 0.000
2492.729 5039.189 0.000
2682.999 5117.499 0.000
2667.279 5096.549 0.000
2658.979 5062.079 0.000
2663.849 5078.139 0.000
2631.989 5038.469 0.000
2642.669 5033.259 0.000
2620.999 5030.059 0.000
2647.989 5049.629 0.000
2616.389 5014.569 0.000
2619.419 5004.089 0.000
2596.609 5009.239 0.000
2551.569 5015.009 0.000
2529.769 5018.709 0.000
2573.019 5004.759 0.000
2464.989 5036.219 0.000
2509.849 4999.469 0.000
2688.909 5098.499 0.000
2680.339 5081.049 0.000
2674.379 5063.969 0.000
2656.109 5034.299 0.000
2632.829 5024.119 0.000
2664.719 5047.909 0.000
2627.369 4996.949 0.000
2633.629 5010.489 0.000
2682.569 5048.899 0.000
2696.449 5049.269 0.000
2606.079 4998.089 0.000
2598.839 4973.509 0.000
2589.179 4990.489 0.000
2536.629 4997.889 0.000
2553.159 4993.749 0.000
2571.069 4982.339 0.000
2485.199 5012.679 0.000
2451.869 5009.379 0.000
2489.649 4991.479 0.000
2521.849 4978.069 0.000
2694.409 5082.499 0.000
2693.189 5066.649 0.000
2718.469 5047.739 0.000
2707.949 5054.289 0.000
2645.919 5020.489 0.000
2674.869 5031.439 0.000
2645.969 5000.899 0.000
2690.259 5019.389 0.000
2692.079 5035.939 0.000
2729.919 5048.749 0.000
2706.459 5040.579 0.000
2606.349 4982.959 0.000
2621.809 4983.449 0.000
2582.789 4967.699 0.000
2540.519 4980.719 0.000
2553.579 4974.469 0.000
2589.649 4952.319 0.000
2600.009 4959.169 0.000
2438.759 4982.539 0.000
2471.529 4988.929 0.000
2496.799 4975.369 0.000
2510.519 4960.269 0.000
2697.089 5104.999 0.000
2709.819 5069.309 0.000
2739.119 5058.749 0.000
2723.529 5060.969 0.000
2662.189 5013.569 0.000
2677.779 5014.489 0.000
2637.319 4984.649 0.000
2649.589 4985.249 0.000
2709.849 4996.769 0.000
2704.799 5024.559 0.000
2774.909 5054.999 0.000
2749.799 5056.949 0.000
2743.899 5046.749 0.000
2735.409 5038.259 0.000
2746.279 5034.059 0.000
2721.319 5033.109 0.000
2614.809 4967.109 0.000
2631.469 4969.079 0.000
2575.639 4952.889 0.000
2558.819 4959.289 0.000
2536.069 4959.559 0.000
2550.619 4945.229 0.000
2583.239 4939.899 0.000
2613.669 4948.589 0.000
2599.649 4943.829 0.000
2424.529 4956.329 0.000
2450.849 4952.949 0.000
2468.379 4962.599 0.000
2494.269 4945.839 0.000
2517.119 4940.359 0.000
2691.689 5122.499 0.000
2707.609 5119.229 0.000
2703.409 5086.499 0.000
2711.559 5104.479 0.000
2720.999 5078.149 0.000
2775.809 5065.999 0.000
2761.329 5064.029 0.000
2748.109 5067.199 0.000
2737.259 5074.039 0.000
2408.549 4931.089 0.000
2659.749 4993.599 0.000
2674.939 4999.739 0.000
2688.389 5003.279 0.000
2704.359 5007.849 0.000
2645.179 4971.329 0.000
2659.769 4975.749 0.000
2713.009 4984.809 0.000
2716.369 5016.749 0.000
2728.129 5017.039 0.000
2759.219 5045.889 0.000
2772.999 5039.999 0.000
2771.499 5026.999 0.000
2734.919 5027.829 0.000
2626.439 4952.769 0.000
2625.079 4936.629 0.000
2641.849 4954.809 0.000
2563.689 4945.229 0.000
2537.619 4936.199 0.000
2568.679 4930.759 0.000
2583.749 4924.489 0.000
2597.439 4927.909 0.000
2611.679 4933.239 0.000
2438.409 4926.819 0.000
2470.659 4933.349 0.000
2524.519 4921.959 0.000
2479.039 4910.519 0.000
2499.519 4921.489 0.000
2698.809 5134.999 0.000
2716.679 5133.019 0.000
2724.949 5114.249 0.000
2721.109 5095.159 0.000
2731.269 5086.599 0.000
2744.439 5088.599 0.000
2767.019 5073.859 0.000
2757.509 5088.209 0.000
2776.999 5076.499 0.000
2754.109 5078.079 0.000
2419.589 4909.679 0.000
2394.079 4904.959 0.000
2673.399 4983.069 0.000
2686.889 4987.869 0.000
2700.249 4992.999 0.000
[...]
POINT_DATA 2337
VECTORS Wave_Dir float
-0.0739 0.1329 0.0
-0.0215 0.1065 0.0
0.0051 0.0748 0.0
-0.1573 0.0825 0.0
-0.1518 0.0940 0.0
-0.0917 0.1364 0.0
-0.0359 0.1243 0.0
-0.1636 0.0837 0.0
-0.1465 -0.0679 0.0
-0.1718 0.0608 0.0
-0.1748 0.0630 0.0
-0.1454 0.1144 0.0
-0.1185 0.1337 0.0
-0.0546 0.1363 0.0
-0.0088 0.1043 0.0
-0.1850 0.0428 0.0
-0.1638 0.1058 0.0
-0.1765 0.0633 0.0
-0.1516 -0.0692 0.0
-0.1687 -0.0131 0.0
-0.1426 -0.0726 0.0
-0.1822 0.0290 0.0
-0.1364 0.1287 0.0
-0.1405 0.1290 0.0
-0.1171 0.1485 0.0
-0.0086 0.1047 0.0
-0.1827 0.0448 0.0
-0.1763 0.0965 0.0
-0.1776 0.0043 0.0
-0.1585 0.1188 0.0
-0.0076 0.1055 0.0
-0.0895 0.1536 0.0
-0.1530 0.0780 0.0
-0.1705 0.1097 0.0
-0.1757 -0.0035 0.0
-0.1318 -0.0710 0.0
-0.1384 0.1498 0.0
-0.0079 0.1044 0.0
-0.1155 0.1543 0.0
-0.1746 0.0563 0.0
-0.1848 0.0323 0.0
-0.1526 0.0839 0.0
-0.1297 -0.0379 0.0
-0.1843 0.0267 0.0
-0.1515 0.1392 0.0
-0.0853 0.1495 0.0
-0.1758 0.0595 0.0
-0.1797 -0.0051 0.0
-0.1490 0.0941 0.0
-0.1756 0.1056 0.0
-0.0075 0.1030 0.0
-0.1483 0.1447 0.0
-0.1521 -0.0685 0.0
-0.1742 0.0685 0.0
-0.1843 0.0350 0.0
-0.1796 -0.0015 0.0
-0.1445 0.1075 0.0
-0.1747 0.0810 0.0
-0.1647 0.1144 0.0
-0.1104 0.1572 0.0
-0.1529 -0.0654 0.0
-0.1856 0.0417 0.0
-0.1798 0.0009 0.0
-0.1738 0.1253 0.0
-0.1397 0.1286 0.0
-0.0097 0.0961 0.0
-0.1322 0.1521 0.0
-0.1446 -0.0765 0.0
-0.1859 0.0076 0.0
-0.1780 0.1067 0.0
-0.1550 0.1387 0.0
-0.1842 0.0597 0.0
-0.0115 0.0900 0.0
-0.0632 0.1344 0.0
-0.1359 -0.0759 0.0
-0.1806 0.0318 0.0
-0.1688 0.1104 0.0
-0.0141 0.0831 0.0
-0.0593 0.1199 0.0
-0.1407 0.1451 0.0
-0.1204 -0.0632 0.0
-0.1607 0.1076 0.0
-0.0155 0.0786 0.0
-0.1183 0.1198 0.0
-0.1224 0.0795 0.0
-0.0655 0.1035 0.0
-0.1563 0.1038 0.0
-0.0041 -0.0107 0.0
0.0002 -0.0004 0.0
0.0002 -0.0004 0.0
-0.0009 -0.0060 0.0
-0.0085 -0.0229 0.0
-0.0162 0.0754 0.0
-0.1170 -0.0560 0.0
-0.1504 0.1039 0.0
0.0001 -0.0001 0.0
-0.0012 -0.0043 0.0
-0.0106 -0.0127 0.0
-0.0063 -0.0054 0.0
0.0002 -0.0004 0.0
-0.0287 -0.0268 0.0
-0.0163 0.0747 0.0
-0.1769 0.0957 0.0
-0.1576 0.0710 0.0
0.0001 -0.0001 0.0
-0.0055 -0.0064 0.0
0.0002 -0.0004 0.0
-0.0035 -0.0088 0.0
-0.0406 -0.0337 0.0
-0.0443 0.0929 0.0
-0.1952 0.0798 0.0
-0.0158 0.0753 0.0
-0.1554 0.0799 0.0
-0.1865 0.0365 0.0
-0.0241 -0.0145 0.0
0.0001 -0.0002 0.0
-0.0074 -0.0104 0.0
-0.0075 -0.0206 0.0
-0.0509 -0.0638 0.0
-0.0232 0.0858 0.0
-0.0155 0.0740 0.0
-0.0307 0.0954 0.0
-0.1932 0.0757 0.0
-0.1943 0.0091 0.0
-0.1517 0.0841 0.0
-0.1872 0.0368 0.0
-0.0295 -0.0245 0.0
0.0001 -0.0002 0.0
-0.0093 -0.0159 0.0
-0.1924 -0.0211 0.0
0.0002 -0.0004 0.0
-0.0349 -0.0513 0.0
-0.1804 -0.0627 0.0
-0.1363 -0.0900 0.0
-0.0166 0.0699 0.0
-0.1869 0.1101 0.0
-0.0338 0.0991 0.0
-0.1721 0.1233 0.0
-0.1973 0.0073 0.0
-0.1642 0.1048 0.0
-0.1489 0.0930 0.0
-0.0400 -0.0379 0.0
0.0001 -0.0002 0.0
-0.2045 -0.0155 0.0
0.0001 -0.0003 0.0
-0.1587 -0.0706 0.0
-0.0166 0.0685 0.0
-0.0262 0.0811 0.0
-0.1857 0.0969 0.0
-0.2049 0.0788 0.0
-0.1966 0.0195 0.0
-0.1917 0.0629 0.0
0.0001 -0.0002 0.0
-0.0167 -0.0273 0.0
-0.1427 -0.0383 0.0
-0.2026 -0.0209 0.0
-0.0164 0.0672 0.0
-0.0439 0.0918 0.0
-0.2029 0.0457 0.0
-0.1981 -0.0186 0.0
-0.1981 0.0801 0.0
0.0001 -0.0002 0.0
-0.0548 -0.0572 0.0
-0.0422 0.0891 0.0
-0.0161 0.0661 0.0
-0.2208 0.0318 0.0
-0.1745 0.0850 0.0
-0.0157 0.0653 0.0
-0.0395 0.0871 0.0
-0.0307 0.0913 0.0
-0.0781 -0.0664 0.0
-0.1937 0.0490 0.0
-0.0150 0.0635 0.0
-0.2026 0.0599 0.0
-0.0329 0.0931 0.0
-0.0046 0.0321 0.0
-0.0178 0.0652 0.0
-0.1983 0.0637 0.0
-0.0325 0.0983 0.0
-0.0026 0.0271 0.0
0.0000 -0.0000 0.0
-0.2026 0.0580 0.0
-0.0264 0.1082 0.0
-0.2120 0.0438 0.0
-0.1023 0.0903 0.0
-0.1168 0.0777 0.0
-0.0252 0.1087 0.0
-0.0380 0.0980 0.0
-0.0498 0.1051 0.0
-0.0245 0.1096 0.0
-0.0966 0.0975 0.0
-0.0239 0.1115 0.0
-0.1015 0.1486 0.0
-0.0482 0.1082 0.0
-0.0231 0.1149 0.0
-0.0515 0.1154 0.0
-0.0188 0.1421 0.0
-0.2397 0.2979 0.0
-0.0215 0.1199 0.0
-0.1022 0.1500 0.0
-0.1397 0.1931 0.0
-0.1103 0.1852 0.0
-0.1782 0.2727 0.0
-0.0191 0.1395 0.0
-0.2658 0.3020 0.0
-0.2854 0.3110 0.0
-0.3245 0.3119 0.0
-0.0565 0.1244 0.0
-0.1119 0.1533 0.0
-0.0070 0.0494 0.0
-0.1595 0.1445 0.0
-0.1406 0.2177 0.0
-0.0194 0.1369 0.0
-0.2189 0.2859 0.0
-0.3480 0.3056 0.0
-0.3319 0.3008 0.0
-0.3268 0.3169 0.0
-0.3770 0.3110 0.0
-0.1074 0.2026 0.0
-0.0195 0.1267 0.0
-0.0046 0.0398 0.0
-0.1646 0.1324 0.0
-0.2598 0.2979 0.0
-0.3634 0.2845 0.0
-0.4162 0.3000 0.0
-0.4282 0.2880 0.0
-0.4344 0.2786 0.0
-0.3748 0.3166 0.0
-0.4480 0.2997 0.0
-0.0186 0.1250 0.0
-0.1577 0.2316 0.0
0.0028 0.0059 0.0
-0.1070 0.2059 0.0
-0.1727 0.1019 0.0
-0.2312 0.2899 0.0
-0.4736 0.2469 0.0
-0.5003 0.2499 0.0
-0.4934 0.2802 0.0
-0.4891 0.2754 0.0
-0.5275 0.2529 0.0
-0.4193 0.3141 0.0
-0.5047 0.2883 0.0
-0.5570 0.2648 0.0
-0.0189 0.1218 0.0
-0.1888 0.2537 0.0
-0.1356 -0.0034 0.0
-0.3121 0.2790 0.0
-0.3897 0.2690 0.0
-0.6054 0.2021 0.0
-0.5730 0.1842 0.0
-0.5869 0.1955 0.0
-0.6076 0.2411 0.0
-0.5751 0.2471 0.0
-0.6320 0.2064 0.0
-0.6487 0.2080 0.0
-0.6611 0.1793 0.0
-0.5107 0.2924 0.0
-0.5853 0.2624 0.0
-0.1083 0.2005 0.0
-0.2194 0.2728 0.0
-0.3291 0.2652 0.0
-0.5857 0.1617 0.0
-0.6403 0.1676 0.0
-0.6170 0.1548 0.0
-0.7161 0.1304 0.0
-0.6478 0.2284 0.0
-0.7016 0.2047 0.0
-0.6654 0.2089 0.0
-0.7219 0.1461 0.0
-0.6831 0.1849 0.0
-0.5998 0.2644 0.0
-0.6639 0.2299 0.0
-0.0193 0.1185 0.0
-0.2193 0.2596 0.0
-0.6389 0.0705 0.0
-0.5790 0.1335 0.0
-0.6918 0.1001 0.0
-0.7262 0.0475 0.0
-0.7170 0.1072 0.0
-0.6644 0.0762 0.0
-0.7738 0.0726 0.0
-0.8099 0.0417 0.0
-0.7696 0.1009 0.0
-0.7197 0.1745 0.0
-0.7093 0.1922 0.0
-0.7618 0.1282 0.0
-0.6746 0.2332 0.0
-0.7473 0.1763 0.0
-0.0194 0.1156 0.0
-0.5707 0.1035 0.0
-0.6627 -0.0087 0.0
-0.7409 -0.0020 0.0
-0.7553 0.0572 0.0
-0.7037 -0.0176 0.0
-0.8341 0.0143 0.0
-0.8033 0.0244 0.0
-0.7283 -0.1354 0.0
-0.7279 -0.2249 0.0
-0.8157 0.0545 0.0
-0.8676 0.0208 0.0
-0.8234 0.0649 0.0
-0.7593 0.1544 0.0
-0.7822 0.1256 0.0
-0.8299 0.0730 0.0
-0.7211 0.2019 0.0
-0.7282 0.2078 0.0
-0.7593 0.1758 0.0
-0.7998 0.1296 0.0
-0.5681 0.0648 0.0
-0.6991 -0.1630 0.0
-0.6299 -0.2761 0.0
-0.6960 -0.2986 0.0
-0.7801 0.0143 0.0
-0.7671 -0.0909 0.0
-0.8412 -0.0207 0.0
-0.7703 -0.0684 0.0
-0.7436 -0.1623 0.0
-0.5489 -0.3014 0.0
-0.6939 -0.2151 0.0
-0.8542 0.0260 0.0
-0.8634 0.0039 0.0
-0.8665 0.0340 0.0
-0.8073 0.1128 0.0
-0.8354 0.0791 0.0
-0.8964 -0.0001 0.0
-0.8911 -0.0003 0.0
-0.7682 0.1841 0.0
-0.7613 0.1801 0.0
-0.7935 0.1451 0.0
-0.8342 0.1028 0.0
-0.9096 -0.2853 0.0
-0.7358 -0.3352 0.0
-0.5271 -0.3475 0.0
-0.6423 -0.3444 0.0
-0.8089 -0.0393 0.0
-0.7949 -0.0485 0.0
-0.8698 -0.0164 0.0
-0.8662 -0.0183 0.0
-0.8190 0.0394 0.0
-0.7205 -0.0834 0.0
0.0213 -0.0019 0.0
-0.4156 -0.3333 0.0
-0.4281 -0.2776 0.0
-0.4883 -0.2133 0.0
-0.3719 -0.0759 0.0
-0.6294 -0.1347 0.0
-0.8886 -0.0078 0.0
-0.8915 -0.0199 0.0
-0.8873 0.0172 0.0
-0.8663 0.0476 0.0
-0.8546 0.0705 0.0
-0.8840 0.0329 0.0
-0.9119 -0.0128 0.0
-0.9130 -0.0266 0.0
-0.9135 -0.0211 0.0
-0.8057 0.1568 0.0
-0.8170 0.1385 0.0
-0.8070 0.1420 0.0
-0.8491 0.0936 0.0
-0.8727 0.0595 0.0
-0.9563 -0.2418 0.0
-0.9633 -0.2520 0.0
-0.8342 -0.3207 0.0
-0.9160 -0.2879 0.0
-0.7519 -0.3521 0.0
0.0000 -0.0398 0.0
-0.3790 -0.3381 0.0
-0.5475 -0.3689 0.0
-0.6755 -0.3778 0.0
-0.8366 0.1324 0.0
-0.8484 -0.0163 0.0
-0.8327 -0.0209 0.0
-0.8144 -0.0124 0.0
-0.7785 0.0141 0.0
-0.8883 -0.0208 0.0
-0.8803 -0.0162 0.0
-0.8699 0.0078 0.0
-0.6863 0.0245 0.0
-0.6205 0.0991 0.0
-0.2515 -0.1708 0.0
0.0159 -0.0162 0.0
0.0121 -0.0203 0.0
-0.5384 0.0291 0.0
-0.9131 -0.0340 0.0
-0.9304 -0.0491 0.0
-0.9133 -0.0377 0.0
-0.8909 0.0192 0.0
-0.8886 0.0331 0.0
-0.9158 -0.0118 0.0
-0.9299 -0.0338 0.0
-0.9310 -0.0406 0.0
-0.9304 -0.0445 0.0
-0.8520 0.1088 0.0
-0.8561 0.0936 0.0
-0.9007 0.0242 0.0
-0.8895 0.0520 0.0
-0.8880 0.0483 0.0
-0.9747 -0.2256 0.0
-0.9848 -0.2339 0.0
-0.9617 -0.2629 0.0
-0.8838 -0.3124 0.0
-0.8143 -0.3425 0.0
-0.8176 -0.3454 0.0
-0.4470 -0.3932 0.0
-0.8115 -0.3455 0.0
-0.4166 -0.3917 0.0
-0.6573 -0.3890 0.0
-0.8648 0.0985 0.0
-0.8600 0.1101 0.0
-0.8687 -0.0107 0.0
-0.8553 0.0005 0.0
-0.8374 0.0183 0.0
-0.9104 -0.0357 0.0
-0.9015 -0.0276 0.0
-0.9197 -0.0468 0.0
-0.8782 0.0086 0.0
-0.7481 0.1075 0.0
-0.7934 0.0659 0.0
-0.1603 0.1475 0.0
-0.4751 0.1768 0.0
-0.9459 -0.0690 0.0
-0.9488 -0.0761 0.0
-0.9320 -0.0552 0.0
-0.9139 -0.0046 0.0
-0.9331 -0.0313 0.0
-0.9136 0.0024 0.0
-0.9351 -0.0392 0.0
-0.9444 -0.0585 0.0
-0.9569 -0.0768 0.0
-0.9570 -0.0861 0.0
-0.9453 -0.0648 0.0
-0.8840 0.0658 0.0
-0.9238 -0.0088 0.0
-0.9116 0.0127 0.0
-0.9048 0.0350 0.0
-0.9122 0.0169 0.0
-1.0111 -0.2094 0.0
-1.0045 -0.2103 0.0
-0.9983 -0.2132 0.0
-0.9958 -0.2263 0.0
-0.9478 -0.2794 0.0
-0.9383 -0.2849 0.0
-0.7381 -0.3630 0.0
-0.8856 0.0690 0.0
-0.8829 0.0837 0.0
-0.8848 0.0755 0.0
-0.8940 -0.0188 0.0
-0.9350 -0.0640 0.0
-0.8843 -0.0082 0.0
-0.9317 -0.0597 0.0
-0.9349 -0.0613 0.0
-0.9412 -0.0703 0.0
-0.9515 -0.0854 0.0
-0.9723 -0.1199 0.0
-0.9572 -0.0948 0.0
-0.8019 0.0837 0.0
-0.8525 0.0365 0.0
-0.3954 0.2170 0.0
-0.0555 0.1543 0.0
-0.9579 -0.0896 0.0
-0.9533 -0.0843 0.0
-0.9334 -0.0272 0.0
-0.9566 -0.0691 0.0
-0.9419 -0.0363 0.0
-0.9483 -0.0590 0.0
-0.9666 -0.0964 0.0
-0.9581 -0.0840 0.0
-0.9073 0.0358 0.0
-0.9309 -0.0155 0.0
-0.9258 0.0028 0.0
-0.9366 -0.0213 0.0
-1.0142 -0.1992 0.0
-1.0125 -0.2036 0.0
-1.0128 -0.2071 0.0
-1.0121 -0.1965 0.0
-0.9841 -0.2432 0.0
-1.0119 -0.2094 0.0
-1.0088 -0.2136 0.0
-0.9759 -0.2546 0.0
-0.9866 -0.2427 0.0
-1.0008 -0.2252 0.0
-0.9113 0.0345 0.0
-0.9072 0.0460 0.0
-0.9576 -0.0918 0.0
-0.9390 -0.0694 0.0
-0.9393 -0.0680 0.0
-0.9742 -0.1233 0.0
-0.9717 -0.1183 0.0
-0.9885 -0.1542 0.0
-0.9939 -0.1688 0.0
-1.0041 -0.2041 0.0
-0.9806 -0.1370 0.0
-0.9568 -0.0951 0.0
-0.9371 -0.0687 0.0
-0.8756 0.0001 0.0
-0.9646 -0.1022 0.0
-0.9691 -0.1089 0.0
-0.9722 -0.1168 0.0
-0.9467 -0.0525 0.0
-0.9473 -0.0481 0.0
-0.9652 -0.0897 0.0
-0.9589 -0.0764 0.0
-0.9682 -0.1038 0.0
-0.9328 -0.0012 0.0
-0.9446 -0.0273 0.0
-0.9298 0.0020 0.0
-0.9510 -0.0488 0.0
-0.9455 -0.0410 0.0
-0.9448 -0.0333 0.0
-1.0177 -0.1892 0.0
-1.0204 -0.1815 0.0
-1.0148 -0.2010 0.0
-1.0169 -0.2029 0.0
-1.0172 -0.1950 0.0
-1.0025 -0.2235 0.0
-1.0064 -0.2178 0.0
-1.0049 -0.2222 0.0
-1.0104 -0.2135 0.0
-0.9986 -0.2294 0.0
-0.9016 0.0596 0.0
-0.9272 0.0112 0.0
-0.9794 -0.1313 0.0
-0.9668 -0.1099 0.0
-0.9588 -0.0967 0.0
-0.9876 -0.1511 0.0
-0.9946 -0.1720 0.0
-0.9931 -0.1665 0.0
-0.9929 -0.1637 0.0
-0.9894 -0.1512 0.0
-0.9915 -0.1583 0.0
-1.0121 -0.2090 0.0
-1.0128 -0.2077 0.0
-1.0114 -0.2096 0.0
-1.0106 -0.2090 0.0
-0.9877 -0.1448 0.0
-0.9762 -0.1225 0.0
-0.9787 -0.1290 0.0
-0.9774 -0.1266 0.0
-0.9587 -0.0758 0.0
-0.9554 -0.0623 0.0
-0.9675 -0.0935 0.0
-0.9791 -0.1216 0.0
-0.9726 -0.1065 0.0
-0.9780 -0.1219 0.0
-0.9853 -0.1366 0.0
-0.9843 -0.1383 0.0
-0.9456 -0.0268 0.0
-0.9434 -0.0200 0.0
-0.9656 -0.0845 0.0
-0.9571 -0.0630 0.0
-0.9521 -0.0472 0.0
-0.9574 -0.0623 0.0
-0.9545 -0.0500 0.0
-1.0221 -0.1854 0.0
-1.0236 -0.1755 0.0
-1.0261 -0.1608 0.0
-1.0129 -0.2062 0.0
-1.0138 -0.2059 0.0
-1.0199 -0.1934 0.0
-1.0106 -0.2133 0.0
-1.0137 -0.2096 0.0
-1.0202 -0.1963 0.0
-1.0147 -0.2058 0.0
-1.0256 -0.1554 0.0
-0.9248 0.0215 0.0
-0.9302 0.0253 0.0
-0.9169 0.0403 0.0
-0.9420 -0.0120 0.0
-0.9448 -0.0023 0.0
-0.9380 0.0146 0.0
-0.9438 0.0032 0.0
-0.9815 -0.1375 0.0
-0.9863 -0.1479 0.0
-0.9925 -0.1657 0.0
-0.9960 -0.1788 0.0
-1.0018 -0.2040 0.0
-0.9963 -0.1772 0.0
-1.0052 -0.2051 0.0
-1.0067 -0.2099 0.0
-1.0112 -0.2132 0.0
-1.0119 -0.2103 0.0
-1.0088 -0.2144 0.0
-1.0110 -0.2139 0.0
-1.0080 -0.2127 0.0
-1.0093 -0.2142 0.0
-0.9895 -0.1574 0.0
-0.9858 -0.1432 0.0
-0.9870 -0.1472 0.0
-0.9858 -0.1455 0.0
-0.9913 -0.1630 0.0
-0.9669 -0.0902 0.0
-0.9659 -0.0870 0.0
-0.9739 -0.1075 0.0
-0.9864 -0.1400 0.0
-0.9888 -0.1517 0.0
-0.9877 -0.1451 0.0
-0.9521 -0.0400 0.0
-0.9552 -0.0498 0.0
-0.9633 -0.0783 0.0
-0.9605 -0.0680 0.0
-0.9662 -0.0821 0.0
-0.9662 -0.0768 0.0
-1.0267 -0.1507 0.0
-1.0217 -0.1884 0.0
-1.0186 -0.1933 0.0
-1.0245 -0.1791 0.0
-1.0252 -0.1735 0.0
-1.0130 -0.2075 0.0
-1.0196 -0.1960 0.0
-1.0170 -0.2038 0.0
-1.0189 -0.1991 0.0
-1.0155 -0.2051 0.0
-1.0135 -0.2073 0.0
-1.0258 -0.1398 0.0
-1.0252 -0.1418 0.0
-0.1951 0.3636 0.0
-0.4225 0.3599 0.0
-0.5538 0.3497 0.0
-0.6380 0.3309 0.0
-0.9423 -0.0027 0.0
-0.9512 -0.0299 0.0
-0.9463 -0.0087 0.0
-0.9524 -0.0234 0.0
-0.9507 -0.0115 0.0
-0.9604 -0.0347 0.0
-0.9474 -0.0057 0.0
-0.9923 -0.1650 0.0
-0.9926 -0.1693 0.0
-0.9961 -0.1811 0.0
-1.0035 -0.2048 0.0
-1.0023 -0.2037 0.0
-1.0036 -0.2118 0.0
-1.0054 -0.2135 0.0
-1.0048 -0.2149 0.0
-1.0059 -0.2170 0.0
-1.0105 -0.2150 0.0
-1.0068 -0.2171 0.0
-1.0092 -0.2159 0.0
-1.0076 -0.2153 0.0
-1.0069 -0.2180 0.0
-0.9935 -0.1731 0.0
-0.9928 -0.1718 0.0
-0.9924 -0.1659 0.0
-0.9885 -0.1552 0.0
-0.9905 -0.1624 0.0
-0.9796 -0.1221 0.0
-0.9718 -0.1020 0.0
-0.9740 -0.1079 0.0
-0.9910 -0.1503 0.0
-0.9918 -0.1571 0.0
-0.9927 -0.1611 0.0
-0.9693 -0.0691 0.0
-0.9680 -0.0739 0.0
-0.9716 -0.1002 0.0
-0.9716 -0.0972 0.0
-0.9719 -0.0939 0.0
-0.9779 -0.1158 0.0
-0.9730 -0.0907 0.0
-0.9776 -0.1023 0.0
-0.9755 -0.0988 0.0
-1.0253 -0.1654 0.0
-1.0174 -0.1994 0.0
-1.0214 -0.1851 0.0
-1.0108 -0.2112 0.0
-1.0169 -0.2017 0.0
-1.0141 -0.2048 0.0
-1.0115 -0.2089 0.0
-1.0252 -0.1330 0.0
-1.0246 -0.1267 0.0
-1.0236 -0.1388 0.0
-1.0258 -0.1284 0.0
-0.7076 0.3044 0.0
-0.1822 0.3446 0.0
-0.5421 0.3218 0.0
-0.6513 0.3036 0.0
-0.4575 0.2808 0.0
-0.1712 0.3199 0.0
-0.9630 -0.0397 0.0
-0.9669 -0.0597 0.0
-0.9507 -0.0233 0.0
-0.9561 -0.0312 0.0
-0.9537 -0.0181 0.0
-0.9590 -0.0331 0.0
-0.9954 -0.1832 0.0
-0.9957 -0.1830 0.0
-1.0025 -0.2144 0.0
-1.0023 -0.2115 0.0
-1.0030 -0.2188 0.0
-1.0034 -0.2195 0.0
-1.0036 -0.2211 0.0
-1.0082 -0.2157 0.0
-1.0075 -0.2172 0.0
-1.0042 -0.2199 0.0
-0.9962 -0.1871 0.0
-0.9926 -0.1712 0.0
-0.9990 -0.1994 0.0
-0.9935 -0.1776 0.0
-0.9892 -0.1439 0.0
-0.9938 -0.1589 0.0
-0.9814 -0.1254 0.0
-0.9966 -0.1694 0.0
-0.9960 -0.1821 0.0
-0.9954 -0.1725 0.0
-0.9746 -0.0894 0.0
-0.9794 -0.1214 0.0
-0.9782 -0.1124 0.0
-0.9789 -0.1070 0.0
-0.9800 -0.1123 0.0
-0.9850 -0.1090 0.0
-0.9785 -0.0893 0.0
-1.0202 -0.1808 0.0
-1.0141 -0.2028 0.0
-1.0151 -0.1990 0.0
-1.0169 -0.1927 0.0
-1.0099 -0.2122 0.0
-1.0099 -0.2061 0.0
-1.0056 -0.2166 0.0
-1.0111 -0.2055 0.0
-1.0240 -0.1542 0.0
-1.0218 -0.1693 0.0
-1.0155 -0.1814 0.0
-1.0209 -0.1519 0.0
-1.0238 -0.1133 0.0
-1.0190 -0.1199 0.0
-1.0250 -0.1205 0.0
-1.0064 -0.0409 0.0
-0.7560 0.2735 0.0
-0.7039 0.2758 0.0
-0.5009 0.3072 0.0
-0.6357 0.2897 0.0
-0.1581 0.2910 0.0
-0.4438 0.2080 0.0
-0.1423 0.2643 0.0
-0.9574 -0.0226 0.0
-0.9736 -0.0760 0.0
-0.9862 -0.1075 0.0
-0.9674 -0.0579 0.0
-0.9682 -0.0587 0.0
-0.9693 -0.0586 0.0
-0.9659 -0.0489 0.0
-0.9741 -0.0645 0.0
-0.9699 -0.0575 0.0
-1.0007 -0.2042 0.0
-1.0016 -0.2140 0.0
-1.0010 -0.2227 0.0
-1.0010 -0.2187 0.0
-1.0013 -0.2240 0.0
-1.0008 -0.2239 0.0
-1.0003 -0.2244 0.0
-1.0040 -0.2204 0.0
-1.0044 -0.2191 0.0
-1.0001 -0.2239 0.0
-1.0002 -0.2068 0.0
-1.0015 -0.2142 0.0
-0.9975 -0.1930 0.0
-0.9909 -0.1503 0.0
-0.9971 -0.1698 0.0
-0.9989 -0.1814 0.0
-0.9983 -0.1816 0.0
-0.9980 -0.1897 0.0
-0.9855 -0.1165 0.0
-0.9882 -0.1263 0.0
-0.9913 -0.1469 0.0
-0.9907 -0.1422 0.0
-0.9909 -0.1394 0.0
-0.9943 -0.1583 0.0
-0.9891 -0.1326 0.0
-0.9913 -0.1288 0.0
-0.9897 -0.1182 0.0
-1.0136 -0.1918 0.0
-1.0111 -0.1829 0.0
-1.0108 -0.2039 0.0
-1.0116 -0.1997 0.0
-1.0074 -0.2120 0.0
-1.0071 -0.2081 0.0
-1.0174 -0.1688 0.0
-1.0138 -0.1630 0.0
-1.0203 -0.0924 0.0
-1.0108 -0.0838 0.0
-1.0155 -0.0700 0.0
-1.0196 -0.1406 0.0
-0.9888 -0.0050 0.0
-0.9972 -0.0183 0.0
-0.9963 -0.0475 0.0
-0.9812 0.0060 0.0
-0.9372 0.0723 0.0
-0.9652 0.0357 0.0
-0.9071 0.1100 0.0
-0.8731 0.1441 0.0
-0.7883 0.2542 0.0
-0.7711 0.2414 0.0
-0.8260 0.2076 0.0
-0.8308 0.1684 0.0
-0.8571 0.1733 0.0
-0.6981 0.2501 0.0
-0.7451 0.2431 0.0
-0.5733 0.2628 0.0
-0.6368 0.2641 0.0
-0.5151 0.2552 0.0
-0.4182 0.2529 0.0
-0.1265 0.2381 0.0
-0.7973 0.1992 0.0
-0.8635 0.1438 0.0
-0.7647 0.2203 0.0
-0.2809 0.2859 0.0
-0.9661 -0.0337 0.0
-0.9783 -0.0622 0.0
-0.9744 -0.0575 0.0
-0.9785 -0.0847 0.0
-0.9806 -0.0870 0.0
-0.9810 -0.0846 0.0
-0.9791 -0.0802 0.0
-0.9976 -0.2296 0.0
-1.0017 -0.2181 0.0
-1.0004 -0.2233 0.0
-0.9990 -0.2288 0.0
-0.9995 -0.2312 0.0
-0.9997 -0.2273 0.0
-0.9982 -0.2290 0.0
-0.9971 -0.2277 0.0
-0.9962 -0.2278 0.0
-1.0000 -0.2236 0.0
-1.0006 -0.2217 0.0
-1.0012 -0.2200 0.0
-0.9984 -0.1999 0.0
-0.9998 -0.2090 0.0
-0.9994 -0.2064 0.0
-0.9981 -0.1779 0.0
-0.9966 -0.1673 0.0
-1.0000 -0.1952 0.0
-0.9920 -0.1375 0.0
-0.9932 -0.1460 0.0
-0.9960 -0.1648 0.0
-0.9939 -0.1529 0.0
-0.9946 -0.1342 0.0
-0.9972 -0.1487 0.0
-0.9963 -0.1401 0.0
-1.0069 -0.2012 0.0
-1.0087 -0.1927 0.0
-1.0018 -0.2182 0.0
-1.0056 -0.2074 0.0
-1.0012 -0.2079 0.0
-1.0030 -0.2141 0.0
-1.0093 -0.1561 0.0
-1.0082 -0.1793 0.0
-1.0041 -0.1914 0.0
-1.0039 -0.1737 0.0
-1.0143 -0.1102 0.0
-1.0116 -0.1367 0.0
-1.0029 -0.0717 0.0
-0.9905 -0.0466 0.0
-0.9824 -0.0517 0.0
-0.9789 -0.0115 0.0
-0.9664 0.0111 0.0
-0.9668 -0.0005 0.0
-0.7873 0.2112 0.0
-0.8841 0.1286 0.0
-0.9062 0.0877 0.0
-0.8627 0.1305 0.0
-0.7402 0.2100 0.0
-0.5987 0.2216 0.0
-0.6395 0.2309 0.0
-0.6950 0.2194 0.0
-0.5440 0.2149 0.0
-0.4541 0.1586 0.0
-0.0811 0.1634 0.0
-0.0952 0.1877 0.0
-0.1103 0.2112 0.0
-0.9567 0.0060 0.0
-0.9397 0.0289 0.0
-0.9240 0.0612 0.0
-0.9832 -0.0555 0.0
-0.9774 -0.0512 0.0
-0.9773 -0.0505 0.0
-0.9739 -0.0440 0.0
-0.9816 -0.0872 0.0
-0.9833 -0.0806 0.0
-0.9813 -0.0780 0.0
-0.9900 -0.1116 0.0
-0.9904 -0.1120 0.0
-0.9895 -0.1098 0.0
-0.9908 -0.1114 0.0
-0.9897 -0.1101 0.0
-0.9959 -0.1331 0.0
-0.9937 -0.2343 0.0
-0.9995 -0.2284 0.0
-0.9966 -0.2336 0.0
-1.0013 -0.2282 0.0
-0.9969 -0.2332 0.0
-0.9970 -0.2338 0.0
-0.9943 -0.2359 0.0
-0.9926 -0.2327 0.0
-0.9955 -0.2276 0.0
-0.9911 -0.2329 0.0
-0.9961 -0.2256 0.0
-1.0015 -0.2236 0.0
-1.0006 -0.2207 0.0
-0.9995 -0.2113 0.0
-0.9996 -0.2223 0.0
-0.9997 -0.1836 0.0
-1.0007 -0.1919 0.0
-1.0004 -0.2030 0.0
-0.9978 -0.1582 0.0
-0.9990 -0.1676 0.0
-1.0003 -0.1811 0.0
-0.9992 -0.1742 0.0
-0.9988 -0.1480 0.0
-0.9993 -0.1533 0.0
-1.0000 -0.1556 0.0
-1.0003 -0.1649 0.0
-0.9966 -0.2123 0.0
-1.0009 -0.2030 0.0
-0.9894 -0.2296 0.0
-0.9963 -0.2228 0.0
-0.9978 -0.2158 0.0
-0.9999 -0.1676 0.0
-0.9982 -0.1893 0.0
-0.9937 -0.2023 0.0
-1.0017 -0.1538 0.0
-0.9916 -0.1682 0.0
-1.0063 -0.1120 0.0
-1.0026 -0.0997 0.0
-1.0040 -0.1309 0.0
-0.9926 -0.0753 0.0
-0.9943 -0.1012 0.0
-0.9802 -0.0773 0.0
-0.9724 -0.0623 0.0
-0.9741 -0.0342 0.0
-0.7947 0.1700 0.0
-0.8339 0.1359 0.0
-0.8866 0.0896 0.0
-0.9088 0.0529 0.0
-0.8623 0.0974 0.0
-0.7488 0.1590 0.0
-0.6798 0.1783 0.0
-0.6177 0.1789 0.0
0.0000 0.0000 0.0
-0.3888 -0.0144 0.0
-0.5736 0.1580 0.0
-0.5507 0.0957 0.0
-0.4310 0.0468 0.0
-0.4371 0.1105 0.0
-0.9595 -0.0294 0.0
-0.9463 -0.0169 0.0
-0.9188 0.0135 0.0
-0.8983 0.0204 0.0
-0.9825 -0.0703 0.0
-0.9920 -0.0967 0.0
-0.9837 -0.0719 0.0
-0.9806 -0.0706 0.0
-0.9853 -0.0853 0.0
-0.9847 -0.0954 0.0
-0.9867 -0.0742 0.0
-0.9845 -0.0657 0.0
-0.9848 -0.0629 0.0
-0.9881 -0.0824 0.0
-0.9821 -0.0714 0.0
-0.9847 -0.0784 0.0
-0.9988 -0.1287 0.0
-1.0011 -0.1417 0.0
-0.9972 -0.1330 0.0
-1.0046 -0.1597 0.0
-0.9990 -0.1395 0.0
-0.9998 -0.1402 0.0
-0.9991 -0.1492 0.0
-0.9914 -0.2422 0.0
-0.9962 -0.2322 0.0
-0.9940 -0.2405 0.0
-0.9909 -0.2448 0.0
-0.9864 -0.2387 0.0
-0.9900 -0.2405 0.0
-0.9877 -0.2458 0.0
-0.9882 -0.2396 0.0
-0.9900 -0.2318 0.0
-0.9985 -0.2291 0.0
-0.9959 -0.2351 0.0
-0.9972 -0.2284 0.0
-0.9958 -0.2306 0.0
-0.9970 -0.2219 0.0
-0.9987 -0.1978 0.0
-0.9982 -0.1929 0.0
-0.9991 -0.2149 0.0
-1.0002 -0.1752 0.0
-0.9997 -0.1828 0.0
-0.9989 -0.1885 0.0
-0.9999 -0.1604 0.0
-1.0019 -0.1686 0.0
-1.0028 -0.1816 0.0
-0.9831 -0.2131 0.0
-0.9915 -0.2128 0.0
-0.9895 -0.2265 0.0
-0.9904 -0.2203 0.0
-0.9927 -0.1830 0.0
-0.9840 -0.2019 0.0
-0.9750 -0.2141 0.0
-0.9923 -0.1495 0.0
-0.9787 -0.1703 0.0
-0.9959 -0.1242 0.0
-0.9679 -0.1052 0.0
-0.9854 -0.1212 0.0
-0.9821 -0.1026 0.0
-0.9641 -0.0828 0.0
-0.9521 -0.1082 0.0
-0.9621 -0.0586 0.0
-0.8068 0.1283 0.0
-0.8379 0.1002 0.0
-0.8821 0.0494 0.0
-0.8567 0.0686 0.0
-0.7825 0.0945 0.0
-0.7223 0.1128 0.0
-0.6587 0.1237 0.0
-0.3519 -0.1053 0.0
-0.0383 -0.1211 0.0
-0.4706 -0.0452 0.0
-0.6228 0.0808 0.0
-0.5881 0.0439 0.0
-0.5266 0.0260 0.0
-0.8823 -0.0006 0.0