# vtk DataFile Version 3.0
Created with pputils
ASCII

DATASET UNSTRUCTURED_GRID
POINTS 500 float
0.000 0.000 0.000
0.000 10.000 0.000
1000.000 0.000 0.000
1000.000 10.000 0.000
10.101 0.000 0.000
20.202 0.000 0.000
30.303 0.000 0.000
40.404 0.000 0.000
50.505 0.000 0.000
60.606 0.000 0.000
70.707 0.000 0.000
80.808 0.000 0.000
90.909 0.000 0.000
101.010 0.000 0.000
111.111 0.000 0.000
121.212 0.000 0.000
131.313 0.000 0.000
141.414 0.000 0.000
151.515 0.000 0.000
161.616 0.000 0.000
171.717 0.000 0.000
181.818 0.000 0.000
191.919 0.000 0.000
202.020 0.000 0.000
212.121 0.000 0.000
222.222 0.000 0.000
232.323 0.000 0.000
242.424 0.000 0.000
252.525 0.000 0.000
262.626 0.000 0.000
272.727 0.000 0.000
282.828 0.000 0.000
292.929 0.000 0.000
303.030 0.000 0.000
313.131 0.000 0.000
323.232 0.000 0.000
333.333 0.000 0.000
343.434 0.000 0.000
353.535 0.000 0.000
363.636 0.000 0.000
373.737 0.000 0.000
383.838 0.000 0.000
393.939 0.000 0.000
404.040 0.000 0.000
414.141 0.000 0.000
424.242 0.000 0.000
434.343 0.000 0.000
444.444 0.000 0.000
454.545 0.000 0.000
464.646 0.000 0.000
474.747 0.000 0.000
484.848 0.000 0.000
494.949 0.000 0.000
505.051 0.000 0.000
515.152 0.000 0.000
525.253 0.000 0.000
535.354 0.000 0.000
545.455 0.000 0.000
555.556 0.000 0.000
565.657 0.000 0.000
575.758 0.000 0.000
585.859 0.000 0.000
595.960 0.000 0.000
606.061 0.000 0.000
616.162 0.000 0.000
626.263 0.000 0.000
636.364 0.000 0.000
646.465 0.000 0.000
656.566 0.000 0.000
666.667 0.000 0.000
676.768 0.000 0.000
686.869 0.000 0.000
696.970 0.000 0.000
707.071 0.000 0.000
717.172 0.000 0.000
727.273 0.000 0.000
737.374 0.000 0.000
747.475 0.000 0.000
757.576 0.000 0.000
767.677 0.000 0.000
777.778 0.000 0.000
787.879 0.000 0.000
797.980 0.000 0.000
808.081 0.000 0.000
818.182 0.000 0.000
828.283 0.000 0.000
838.384 0.000 0.000
848.485 0.000 0.000
858.586 0.000 0.000
868.687 0.000 0.000
878.788 0.000 0.000
888.889 0.000 0.000
898.990 0.000 0.000
909.091 0.000 0.000
919.192 0.000 0.000
929.293 0.000 0.000
939.394 0.000 0.000
949.495 0.000 0.000
959.596 0.000 0.000
969.697 0.000 0.000
979.798 0.000 0.000
989.899 0.000 0.000
1000.000 2.500 0.000
1000.000 5.000 0.000
1000.000 7.500 0.000
989.899 10.000 0.000
979.798 10.000 0.000
969.697 10.000 0.000
959.596 10.000 0.000
949.495 10.000 0.000
939.394 10.000 0.000
929.293 10.000 0.000
919.192 10.000 0.000
909.091 10.000 0.000
898.990 10.000 0.000
888.889 10.000 0.000
878.788 10.000 0.000
868.687 10.000 0.000
858.586 10.000 0.000
848.485 10.000 0.000
838.384 10.000 0.000
828.283 10.000 0.000
818.182 10.000 0.000
808.081 10.000 0.000
797.980 10.000 0.000
787.879 10.000 0.000
777.778 10.000 0.000
767.677 10.000 0.000
757.576 10.000 0.000
747.475 10.000 0.000
737.374 10.000 0.000
727.273 10.000 0.000
717.172 10.000 0.000
707.071 10.000 0.000
696.970 10.000 0.000
686.869 10.000 0.000
676.768 10.000 0.000
666.667 10.000 0.000
656.566 10.000 0.000
646.465 10.000 0.000
636.364 10.000 0.000
626.263 10.000 0.000
616.162 10.000 0.000
606.061 10.000 0.000
595.960 10.000 0.000
585.859 10.000 0.000
575.758 10.000 0.000
565.657 10.000 0.000
555.556 10.000 0.000
545.455 10.000 0.000
535.354 10.000 0.000
525.253 10.000 0.000
515.152 10.000 0.000
505.051 10.000 0.000
494.949 10.000 0.000
484.848 10.000 0.000
474.747 10.000 0.000
464.646 10.000 0.000
454.545 10.000 0.000
444.444 10.000 0.000
434.343 10.000 0.000
424.242 10.000 0.000
414.141 10.000 0.000
404.040 10.000 0.000
393.939 10.000 0.000
383.838 10.000 0.000
373.737 10.000 0.000
363.636 10.000 0.000
353.535 10.000 0.000
343.434 10.000 0.000
333.333 10.000 0.000
323.232 10.000 0.000
313.131 10.000 0.000
303.030 10.000 0.000
292.929 10.000 0.000
282.828 10.000 0.000
272.727 10.000 0.000
262.626 10.000 0.000
252.525 10.000 0.000
242.424 10.000 0.000
232.323 10.000 0.000
222.222 10.000 0.000
212.121 10.000 0.000
202.020 10.000 0.000
191.919 10.000 0.000
181.818 10.000 0.000
171.717 10.000 0.000
161.616 10.000 0.000
151.515 10.000 0.000
141.414 10.000 0.000
131.313 10.000 0.000
121.212 10.000 0.000
111.111 10.000 0.000
101.010 10.000 0.000
90.909 10.000 0.000
80.808 10.000 0.000
70.707 10.000 0.000
60.606 10.000 0.000
50.505 10.000 0.000
40.404 10.000 0.000
30.303 10.000 0.000
20.202 10.000 0.000
10.101 10.000 0.000
0.000 7.500 0.000
0.000 5.000 0.000
0.000 2.500 0.000
10.101 2.500 0.000
10.101 5.000 0.000
10.101 7.500 0.000
20.202 2.500 0.000
20.202 5.000 0.000
20.202 7.500 0.000
30.303 2.500 0.000
30.303 5.000 0.000
30.303 7.500 0.000
40.404 2.500 0.000
40.404 5.000 0.000
40.404 7.500 0.000
50.505 2.500 0.000
50.505 5.000 0.000
50.505 7.500 0.000
60.606 2.500 0.000
60.606 5.000 0.000
60.606 7.500 0.000
70.707 2.500 0.000
70.707 5.000 0.000
70.707 7.500 0.000
80.808 2.500 0.000
80.808 5.000 0.000
80.808 7.500 0.000
90.909 2.500 0.000
90.909 5.000 0.000
90.909 7.500 0.000
101.010 2.500 0.000
101.010 5.000 0.000
101.010 7.500 0.000
111.111 2.500 0.000
111.111 5.000 0.000
111.111 7.500 0.000
121.212 2.500 0.000
121.212 5.000 0.000
121.212 7.500 0.000
131.313 2.500 0.000
131.313 5.000 0.000
131.313 7.500 0.000
141.414 2.500 0.000
141.414 5.000 0.000
141.414 7.500 0.000
151.515 2.500 0.000
151.515 5.000 0.000
151.515 7.500 0.000
161.616 2.500 0.000
161.616 5.000 0.000
161.616 7.500 0.000
171.717 2.500 0.000
171.717 5.000 0.000
171.717 7.500 0.000
181.818 2.500 0.000
181.818 5.000 0.000
181.818 7.500 0.000
191.919 2.500 0.000
191.919 5.000 0.000
191.919 7.500 0.000
202.020 2.500 0.000
202.020 5.000 0.000
202.020 7.500 0.000
212.121 2.500 0.000
212.121 5.000 0.000
212.121 7.500 0.000
222.222 2.500 0.000
222.222 5.000 0.000
222.222 7.500 0.000
232.323 2.500 0.000
232.323 5.000 0.000
232.323 7.500 0.000
242.424 2.500 0.000
242.424 5.000 0.000
242.424 7.500 0.000
252.525 2.500 0.000
252.525 5.000 0.000
252.525 7.500 0.000
262.626 2.500 0.000
262.626 5.000 0.000
262.626 7.500 0.000
272.727 2.500 0.000
272.727 5.000 0.000
272.727 7.500 0.000
282.828 2.500 0.000
282.828 5.000 0.000
282.828 7.500 0.000
292.929 2.500 0.000
292.929 5.000 0.000
292.929 7.500 0.000
303.030 2.500 0.000
303.030 5.000 0.000
303.030 7.500 0.000
313.131 2.500 0.000
313.131 5.000 0.000
313.131 7.500 0.000
323.232 2.500 0.000
323.232 5.000 0.000
323.232 7.500 0.000
333.333 2.500 0.000
333.333 5.000 0.000
333.333 7.500 0.000
343.434 2.500 0.000
343.434 5.000 0.000
343.434 7.500 0.000
353.535 2.500 0.000
353.535 5.000 0.000
353.535 7.500 0.000
363.636 2.500 0.000
363.636 5.000 0.000
363.636 7.500 0.000
373.737 2.500 0.000
373.737 5.000 0.000
373.737 7.500 0.000
383.838 2.500 0.000
383.838 5.000 0.000
383.838 7.500 0.000
393.939 2.500 0.000
393.939 5.000 0.000
393.939 7.500 0.000
404.040 2.500 0.000
404.040 5.000 0.000
404.040 7.500 0.000
414.141 2.500 0.000
414.141 5.000 0.000
414.141 7.500 0.000
424.242 2.500 0.000
424.242 5.000 0.000
424.242 7.500 0.000
434.343 2.500 0.000
434.343 5.000 0.000
434.343 7.500 0.000
444.444 2.500 0.000
444.444 5.000 0.000
444.444 7.500 0.000
454.545 2.500 0.000
454.545 5.000 0.000
454.545 7.500 0.000
464.646 2.500 0.000
464.646 5.000 0.000
464.646 7.500 0.000
474.747 2.500 0.000
474.747 5.000 0.000
474.747 7.500 0.000
484.848 2.500 0.000
484.848 5.000 0.000
484.848 7.500 0.000
494.949 2.500 0.000
494.949 5.000 0.000
494.949 7.500 0.000
505.051 2.500 0.000
505.051 5.000 0.000
505.051 7.500 0.000
515.152 2.500 0.000
515.152 5.000 0.000
515.152 7.500 0.000
525.253 2.500 0.000
525.253 5.000 0.000
525.253 7.500 0.000
535.354 2.500 0.000
535.354 5.000 0.000
535.354 7.500 0.000
545.455 2.500 0.000
545.455 5.000 0.000
545.455 7.500 0.000
555.556 2.500 0.000
555.556 5.000 0.000
555.556 7.500 0.000
565.657 2.500 0.000
565.657 5.000 0.000
565.657 7.500 0.000
575.758 2.500 0.000
575.758 5.000 0.000
575.758 7.500 0.000
585.859 2.500 0.000
585.859 5.000 0.000
585.859 7.500 0.000
595.960 2.500 0.000
595.960 5.000 0.000
595.960 7.500 0.000
606.061 2.500 0.000
606.061 5.000 0.000
606.061 7.500 0.000
616.162 2.500 0.000
616.162 5.000 0.000
616.162 7.500 0.000
626.263 2.500 0.000
626.263 5.000 0.000
626.263 7.500 0.000
636.364 2.500 0.000
636.364 5.000 0.000
636.364 7.500 0.000
646.465 2.500 0.000
646.465 5.000 0.000
646.465 7.500 0.000
656.566 2.500 0.000
656.566 5.000 0.000
656.566 7.500 0.000
666.667 2.500 0.000
666.667 5.000 0.000
666.667 7.500 0.000
676.768 2.500 0.000
676.768 5.000 0.000
676.768 7.500 0.000
686.869 2.500 0.000
686.869 5.000 0.000
686.869 7.500 0.000
696.970 2.500 0.000
696.970 5.000 0.000
696.970 7.500 0.000
707.071 2.500 0.000
707.071 5.000 0.000
707.071 7.500 0.000
717.172 2.500 0.000
717.172 5.000 0.000
717.172 7.500 0.000
727.273 2.500 0.000
727.273 5.000 0.000
727.273 7.500 0.000
737.374 2.500 0.000
737.374 5.000 0.000
737.374 7.500 0.000
747.475 2.500 0.000
747.475 5.000 0.000
747.475 7.500 0.000
757.576 2.500 0.000
757.576 5.000 0.000
757.576 7.500 0.000
767.677 2.500 0.000
767.677 5.000 0.000
767.677 7.500 0.000
777.778 2.500 0.000
777.778 5.000 0.000
777.778 7.500 0.000
787.879 2.500 0.000
787.879 5.000 0.000
787.879 7.500 0.000
797.980 2.500 0.000
797.980 5.000 0.000
797.980 7.500 0.000
808.081 2.500 0.000
808.081 5.000 0.000
808.081 7.500 0.000
818.182 2.500 0.000
818.182 5.000 0.000
818.182 7.500 0.000
828.283 2.500 0.000
828.283 5.000 0.000
828.283 7.500 0.000
838.384 2.500 0.000
838.384 5.000 0.000
838.384 7.500 0.000
848.485 2.500 0.000
848.485 5.000 0.000
848.485 7.500 0.000
858.586 2.500 0.000
858.586 5.000 0.000
858.586 7.500 0.000
868.687 2.500 0.000
868.687 5.000 0.000
868.687 7.500 0.000
878.788 2.500 0.000
878.788 5.000 0.000
878.788 7.500 0.000
888.889 2.500 0.000
888.889 5.000 0.000
888.889 7.500 0.000
898.990 2.500 0.000
898.990 5.000 0.000
898.990 7.500 0.000
909.091 2.500 0.000
909.091 5.000 0.000
909.091 7.500 0.000
919.192 2.500 0.000
919.192 5.000 0.000
919.192 7.500 0.000
929.293 2.500 0.000
929.293 5.000 0.000
929.293 7.500 0.000
939.394 2.500 0.000
939.394 5.000 0.000
939.394 7.500 0.000
949.495 2.500 0.000
949.495 5.000 0.000
949.495 7.500 0.000
959.596 2.500 0.000
959.596 5.000 0.000
959.596 7.500 0.000
969.697 2.500 0.000
[...]
POINT_DATA 500
VECTORS Velocity float
0.0 0.0 0.0
0.0 0.0 0.0
0.0 0.0 0.0
0.0 0.0 0.0
0.0 0.0 0.0
0.0 0.0 0.0
0.0 0.0 0.0
0.0 0.0 0.0
0.0 0.0 0.0
0.0 0.0 0.0
0.0 0.0 0.0
0.0 0.0 0.0
0.0 0.0 0.0
0.0 0.0 0.0
0.0 0.0 0.0
0.0 0.0 0.0
0.0 0.0 0.0
0.0 0.0 0.0
0.0 0.0 0.0
0.0 0.0 0.0
0.0 0.0 0.0
0.0 0.0 0.0
0.0 0.0 0.0
0.0 0.0 0.0
0.0 0.0 0.0
0.0 0.0 0.0
0.0 0.0 0.0
0.0 0.0 0.0
0.0 0.0 0.0
0.0 0.0 0.0
0.0 0.0 0.0
0.0 0.0 0.0
0.0 0.0 0.0
0.0 0.0 0.0
0.0 0.0 0.0
0.0 0.0 0.0
0.0 0.0 0.0
0.0 0.0 0.0
0.0 0.0 0.0
0.0 0.0 0.0
0.0 0.0 0.0
0.0 0.0 0.0
0.0 0.0 0.0
0.0 0.0 0.0
0.0 0.0 0.0
0.0 0.0 0.0
0.0 0.0 0.0
0.0 0.0 0.0
0.0 0.0 0.0
0.0 0.0 0.0
0.0 0.0 0.0
0.0 0.0 0.0
0.0 0.0 0.0
0.0 0.0 0.0
0.0 0.0 0.0
0.0 0.0 0.0
0.0 0.0 0.0
0.0 0.0 0.0
0.0 0.0 0.0
0.0 0.0 0.0
0.0 0.0 0.0
0.0 0.0 0.0
0.0 0.0 0.0
0.0 0.0 0.0
0.0 0.0 0.0
0.0 0.0 0.0
0.0 0.0 0.0
0.0 0.0 0.0
0.0 0.0 0.0
0.0 0.0 0.0
0.0 0.0 0.0
0.0 0.0 0.0
0.0 0.0 0.0
0.0 0.0 0.0
0.0 0.0 0.0
0.0 0.0 0.0
0.0 0.0 0.0
0.0 0.0 0.0
0.0 0.0 0.0
0.0 0.0 0.0
0.0 0.0 0.0
0.0 0.0 0.0
0.0 0.0 0.0
0.0 0.0 0.0
0.0 0.0 0.0
0.0 0.0 0.0
0.0 0.0 0.0
0.0 0.0 0.0
0.0 0.0 0.0
0.0 0.0 0.0
0.0 0.0 0.0
0.0 0.0 0.0
0.0 0.0 0.0
0.0 0.0 0.0
0.0 0.0 0.0
0.0 0.0 0.0
0.0 0.0 0.0
0.0 0.0 0.0
0.0 0.0 0.0
0.0 0.0 0.0
0.0 0.0 0.0
0.0 0.0 0.0
0.0 0.0 0.0
0.0 0.0 0.0
0.0 0.0 0.0
0.0 0.0 0.0
0.0 0.0 0.0
0.0 0.0 0.0
0.0 0.0 0.0
0.0 0.0 0.0
0.0 0.0 0.0
0.0 0.0 0.0
0.0 0.0 0.0
0.0 0.0 0.0
0.0 0.0 0.0
0.0 0.0 0.0
0.0 0.0 0.0
0.0 0.0 0.0
0.0 0.0 0.0
0.0 0.0 0.0
0.0 0.0 0.0
0.0 0.0 0.0
0.0 0.0 0.0
0.0 0.0 0.0
0.0 0.0 0.0
0.0 0.0 0.0
0.0 0.0 0.0
0.0 0.0 0.0
0.0 0.0 0.0
0.0 0.0 0.0
0.0 0.0 0.0
0.0 0.0 0.0
0.0 0.0 0.0
0.0 0.0 0.0
0.0 0.0 0.0
0.0 0.0 0.0
0.0 0.0 0.0
0.0 0.0 0.0
0.0 0.0 0.0
0.0 0.0 0.0
0.0 0.0 0.0
0.0 0.0 0.0
0.0 0.0 0.0
0.0 0.0 0.0
0.0 0.0 0.0
0.0 0.0 0.0
0.0 0.0 0.0
0.0 0.0 0.0
0.0 0.0 0.0
0.0 0.0 0.0
0.0 0.0 0.0
0.0 0.0 0.0
0.0 0.0 0.0
0.0 0.0 0.0
0.0 0.0 0.0
0.0 0.0 0.0
0.0 0.0 0.0
0.0 0.0 0.0
0.0 0.0 0.0
0.0 0.0 0.0
0.0 0.0 0.0
0.0 0.0 0.0
0.0 0.0 0.0
0.0 0.0 0.0
0.0 0.0 0.0
0.0 0.0 0.0
0.0 0.0 0.0
0.0 0.0 0.0
0.0 0.0 0.0
0.0 0.0 0.0
0.0 0.0 0.0
0.0 0.0 0.0
0.0 0.0 0.0
0.0 0.0 0.0
0.0 0.0 0.0
0.0 0.0 0.0
0.0 0.0 0.0
0.0 0.0 0.0
0.0 0.0 0.0
0.0 0.0 0.0
0.0 0.0 0.0
0.0 0.0 0.0
0.0 0.0 0.0
0.0 0.0 0.0
0.0 0.0 0.0
0.0 0.0 0.0
0.0 0.0 0.0
0.0 0.0 0.0
0.0 0.0 0.0
0.0 0.0 0.0
0.0 0.0 0.0
0.0 0.0 0.0
0.0 0.0 0.0
0.0 0.0 0.0
0.0 0.0 0.0
0.0 0.0 0.0
0.0 0.0 0.0
0.0 0.0 0.0
0.0 0.0 0.0
0.0 0.0 0.0
0.0 0.0 0.0
0.0 0.0 0.0
0.0 0.0 0.0
0.0 0.0 0.0
0.0 0.0 0.0
0.0 0.0 0.0
0.0 0.0 0.0
0.0 0.0 0.0
0.0 0.0 0.0
0.0 0.0 0.0
0.0 0.0 0.0
0.0 0.0 0.0
0.0 0.0 0.0
0.0 0.0 0.0
0.0 0.0 0.0
0.0 0.0 0.0
0.0 0.0 0.0
0.0 0.0 0.0
0.0 0.0 0.0
0.0 0.0 0.0
0.0 0.0 0.0
0.0 0.0 0.0
0.0 0.0 0.0
0.0 0.0 0.0
0.0 0.0 0.0
0.0 0.0 0.0
0.0 0.0 0.0
0.0 0.0 0.0
0.0 0.0 0.0
0.0 0.0 0.0
0.0 0.0 0.0
0.0 0.0 0.0
0.0 0.0 0.0
0.0 0.0 0.0
0.0 0.0 0.0
0.0 0.0 0.0
0.0 0.0 0.0
0.0 0.0 0.0
0.0 0.0 0.0
0.0 0.0 0.0
0.0 0.0 0.0
0.0 0.0 0.0
0.0 0.0 0.0
0.0 0.0 0.0
0.0 0.0 0.0
0.0 0.0 0.0
0.0 0.0 0.0
0.0 0.0 0.0
0.0 0.0 0.0
0.0 0.0 0.0
0.0 0.0 0.0
0.0 0.0 0.0
0.0 0.0 0.0
0.0 0.0 0.0
0.0 0.0 0.0
0.0 0.0 0.0
0.0 0.0 0.0
0.0 0.0 0.0
0.0 0.0 0.0
0.0 0.0 0.0
0.0 0.0 0.0
0.0 0.0 0.0
0.0 0.0 0.0
0.0 0.0 0.0
0.0 0.0 0.0
0.0 0.0 0.0
0.0 0.0 0.0
0.0 0.0 0.0
0.0 0.0 0.0
0.0 0.0 0.0
0.0 0.0 0.0
0.0 0.0 0.0
0.0 0.0 0.0
0.0 0.0 0.0
0.0 0.0 0.0
0.0 0.0 0.0
0.0 0.0 0.0
0.0 0.0 0.0
0.0 0.0 0.0
0.0 0.0 0.0
0.0 0.0 0.0
0.0 0.0 0.0
0.0 0.0 0.0
0.0 0.0 0.0
0.0 0.0 0.0
0.0 0.0 0.0
0.0 0.0 0.0
0.0 0.0 0.0
0.0 0.0 0.0
0.0 0.0 0.0
0.0 0.0 0.0
0.0 0.0 0.0
0.0 0.0 0.0
0.0 0.0 0.0
0.0 0.0 0.0
0.0 0.0 0.0
0.0 0.0 0.0
0.0 0.0 0.0
0.0 0.0 0.0
0.0 0.0 0.0
0.0 0.0 0.0
0.0 0.0 0.0
0.0 0.0 0.0
0.0 0.0 0.0
0.0 0.0 0.0
0.0 0.0 0.0
0.0 0.0 0.0
0.0 0.0 0.0
0.0 0.0 0.0
0.0 0.0 0.0
0.0 0.0 0.0
0.0 0.0 0.0
0.0 0.0 0.0
0.0 0.0 0.0
0.0 0.0 0.0
0.0 0.0 0.0
0.0 0.0 0.0
0.0 0.0 0.0
0.0 0.0 0.0
0.0 0.0 0.0
0.0 0.0 0.0
0.0 0.0 0.0
0.0 0.0 0.0
0.0 0.0 0.0
0.0 0.0 0.0
0.0 0.0 0.0
0.0 0.0 0.0
0.0 0.0 0.0
0.0 0.0 0.0
0.0 0.0 0.0
0.0 0.0 0.0
0.0 0.0 0.0
0.0 0.0 0.0
0.0 0.0 0.0
0.0 0.0 0.0
0.0 0.0 0.0
0.0 0.0 0.0
0.0 0.0 0.0
0.0 0.0 0.0
0.0 0.0 0.0
0.0 0.0 0.0
0.0 0.0 0.0
0.0 0.0 0.0
0.0 0.0 0.0
0.0 0.0 0.0
0.0 0.0 0.0
0.0 0.0 0.0
0.0 0.0 0.0
0.0 0.0 0.0
0.0 0.0 0.0
0.0 0.0 0.0
0.0 0.0 0.0
0.0 0.0 0.0
0.0 0.0 0.0
0.0 0.0 0.0
0.0 0.0 0.0
0.0 0.0 0.0
0.0 0.0 0.0
0.0 0.0 0.0
0.0 0.0 0.0
0.0 0.0 0.0
0.0 0.0 0.0
0.0 0.0 0.0
0.0 0.0 0.0
0.0 0.0 0.0
0.0 0.0 0.0
0.0 0.0 0.0
0.0 0.0 0.0
0.0 0.0 0.0
0.0 0.0 0.0
0.0 0.0 0.0
0.0 0.0 0.0
0.0 0.0 0.0
0.0 0.0 0.0
0.0 0.0 0.0
0.0 0.0 0.0
0.0 0.0 0.0
0.0 0.0 0.0
0.0 0.0 0.0
0.0 0.0 0.0
0.0 0.0 0.0
0.0 0.0 0.0
0.0 0.0 0.0
0.0 0.0 0.0
0.0 0.0 0.0
0.0 0.0 0.0
0.0 0.0 0.0
0.0 0.0 0.0
0.0 0.0 0.0
0.0 0.0 0.0
0.0 0.0 0.0
0.0 0.0 0.0
0.0 0.0 0.0
0.0 0.0 0.0
0.0 0.0 0.0
0.0 0.0 0.0
0.0 0.0 0.0
0.0 0.0 0.0
0.0 0.0 0.0
0.0 0.0 0.0
0.0 0.0 0.0
0.0 0.0 0.0
0.0 0.0 0.0
0.0 0.0 0.0
0.0 0.0 0.0
0.0 0.0 0.0
0.0 0.0 0.0
0.0 0.0 0.0
0.0 0.0 0.0
0.0 0.0 0.0
0.0 0.0 0.0
0.0 0.0 0.0
0.0 0.0 0.0
0.0 0.0 0.0
0.0 0.0 0.0
0.0 0.0 0.0
0.0 0.0 0.0
0.0 0.0 0.0
0.0 0.0 0.0
0.0 0.0 0.0
0.0 0.0 0.0
0.0 0.0 0.0
0.0 0.0 0.0
0.0 0.0 0.0
0.0 0.0 0.0
0.0 0.0 0.0
0.0 0.0 0.0
0.0 0.0 0.0
0.0 0.0 0.0
0.0 0.0 0.0
0.0 0.0 0.0
0.0 0.0 0.0
0.0 0.0 0.0
0.0 0.0 0.0
0.0 0.0 0.0
0.0 0.0 0.0
0.0 0.0 0.0
0.0 0.0 0.0
0.0 0.0 0.0
0.0 0.0 0.0
0.0 0.0 0.0
0.0 0.0 0.0
0.0 0.0 0.0
0.0 0.0 0.0
0.0 0.0 0.0
0.0 0.0 0.0
0.0 0.0 0.0
0.0 0.0 0.0
0.0 0.0 0.0
0.0 0.0 0.0
0.0 0.0 0.0
0.0 0.0 0.0
0.0 0.0 0.0
0.0 0.0 0.0
0.0 0.0 0.0
0.0 0.0 0.0
0.0 0.0 0.0
0.0 0.0 0.0
0.0 0.0 0.0
0.0 0.0 0.0
0.0 0.0 0.0
0.0 0.0 0.0
0.0 0.0 0.0
0.0 0.0 0.0
0.0 0.0 0.0
0.0 0.0 0.0
0.0 0.0 0.0
0.0 0.0 0.0
0.0 0.0 0.0
0.0 0.0 0.0
0.0 0.0 0.0
0.0 0.0 0.0
0.0 0.0 0.0
0.0 0.0 0.0
0.0 0.0 0.0
0.0 0.0 0.0
0.0 0.0 0.0
0.0 0.0 0.0
0.0 0.0 0.0
0.0 0.0 0.0
0.0 0.0 0.0
0.0 0.0 0.0
0.0 0.0 0.0
0.0 0.0 0.0
0.0 0.0 0.0
0.0 0.0 0.0
0.0 0.0 0.0
0.0 0.0 0.0
0.0 0.0 0.0
0.0 0.0 0.0
0.0 0.0 0.0
0.0 0.0 0.0
0.0 0.0 0.0
0.0 0.0 0.0
0.0 0.0 0.0
0.0 0.0 0.0
0.0 0.0 0.0
0.0 0.0 0.0
0.0 0.0 0.0
0.0 0.0 0.0
SCALARS WATER_DEPTH_____
float
LOOKUP_TABLE default
2.0
2.0
1.0
1.0
1.98999786377
1.98000335693
1.9700012207
1.95999908447
1.94899749756
1.93900299072
1.92900085449
1.91899871826
1.90899658203
1.8990020752
1.88899993896
1.87899780273
1.8690032959
1.85900115967
1.84799957275
1.83799743652
1.82800292969
1.81800079346
1.80799865723
1.797996521
1.78800201416
1.77799987793
1.7679977417
1.75800323486
1.74700164795
1.73699951172
1.72699737549
1.71700286865
1.70700073242
1.69699859619
1.68699645996
1.67700195312
1.66699981689
1.65699768066
1.64600372314
1.63600158691
1.62599945068
1.61599731445
1.60600280762
1.59600067139
1.58599853516
1.57599639893
1.56600189209
1.55599975586
1.54499816895
1.53500366211
1.52500152588
1.51499938965
1.50499725342
1.49500274658
1.48500061035
1.47499847412
1.46499633789
1.45500183105
1.44400024414
1.43399810791
1.42400360107
1.41400146484
1.40399932861
1.39399719238
1.38400268555
1.37400054932
1.36399841309
1.35399627686
1.34300231934
1.33300018311
1.32299804688
1.31300354004
1.30300140381
1.29299926758
1.28299713135
1.27300262451
1.26300048828
1.25299835205
1.24199676514
1.2320022583
1.22200012207
1.21199798584
1.202003479
1.19200134277
1.18199920654
1.17199707031
1.16200256348
1.15200042725
1.14099884033
1.1309967041
1.12100219727
1.11100006104
1.1009979248
1.09100341797
1.08100128174
1.07099914551
1.06099700928
1.05100250244
1.04000091553
1.0299987793
1.01999664307
1.01000213623
1.0
1.0
1.0
1.01000213623
1.01999664307
1.0299987793
1.04000091553
1.05100250244
1.06099700928
1.07099914551
1.08100128174
1.09100341797
1.1009979248
1.11100006104
1.12100219727
1.1309967041
1.14099884033
1.15200042725
1.16200256348
1.17199707031
1.18199920654
1.19200134277
1.202003479
1.21199798584
1.22200012207
1.2320022583
1.24199676514
1.25299835205
1.26300048828
1.27300262451
1.28299713135
1.29299926758
1.30300140381
1.31300354004
1.32299804688
1.33300018311
1.34300231934
1.35399627686
1.36399841309
1.37400054932
1.38400268555
1.39399719238
1.40399932861
1.41400146484
1.42400360107
1.43399810791
1.44400024414
1.45500183105
1.46499633789
1.47499847412
1.48500061035
1.49500274658
1.50499725342
1.51499938965
1.52500152588
1.53500366211
1.54499816895
1.55599975586
1.56600189209
1.57599639893
1.58599853516
1.59600067139
1.60600280762
1.61599731445
1.62599945068
1.63600158691
1.64600372314
1.65699768066
1.66699981689
1.67700195312
1.68699645996
1.69699859619
1.70700073242
1.71700286865
1.72699737549
1.73699951172
1.74700164795
1.75800323486
1.7679977417
1.77799987793
1.78800201416
1.797996521
1.80799865723
1.81800079346
1.82800292969
1.83799743652
1.84799957275
1.85900115967
1.8690032959
1.87899780273
1.88899993896
1.8990020752
1.90899658203
1.91899871826
1.92900085449
1.93900299072
1.94899749756
1.95999908447
1.9700012207
1.98000335693
1.98999786377
2.0
2.0
2.0
1.98999786377
1.98999786377
1.98999786377
1.98000335693
1.98000335693
1.98000335693
1.9700012207
1.9700012207
1.9700012207
1.95999908447
1.95999908447
1.95999908447
1.94899749756
1.94899749756
1.94899749756
1.93900299072
1.93900299072
1.93900299072
1.92900085449
1.92900085449
1.92900085449
1.91899871826
1.91899871826
1.91899871826
1.90899658203
1.90899658203
1.90899658203
1.8990020752
1.8990020752
1.8990020752
1.88899993896
1.88899993896
1.88899993896
1.87899780273
1.87899780273
1.87899780273
1.8690032959
1.8690032959
1.8690032959
1.85900115967
1.85900115967
1.85900115967
1.84799957275
1.84799957275
1.84799957275
1.83799743652
1.83799743652
1.83799743652
1.82800292969
1.82800292969
1.82800292969
1.81800079346
1.81800079346
1.81800079346
1.80799865723
1.80799865723
1.80799865723
1.797996521
1.797996521
1.797996521
1.78800201416
1.78800201416
1.78800201416
1.77799987793
1.77799987793
1.77799987793
1.7679977417
1.7679977417
1.7679977417
1.75800323486
1.75800323486
1.75800323486
1.74700164795
1.74700164795
1.74700164795
1.73699951172
1.73699951172
1.73699951172
1.72699737549
1.72699737549
1.72699737549
1.71700286865
1.71700286865
1.71700286865
1.70700073242
1.70700073242
1.70700073242
1.69699859619
1.69699859619
1.69699859619
1.68699645996
1.68699645996
1.68699645996
1.67700195312
1.67700195312
1.67700195312
1.66699981689
1.66699981689
1.66699981689
1.65699768066
1.65699768066
1.65699768066
1.64600372314
1.64600372314
1.64600372314
1.63600158691
1.63600158691
1.63600158691
1.62599945068
1.62599945068
1.62599945068
1.61599731445
1.61599731445
1.61599731445
1.60600280762
1.60600280762
1.60600280762
1.59600067139
1.59600067139
1.59600067139
1.58599853516
1.58599853516
1.58599853516
1.57599639893
1.57599639893
1.57599639893
1.56600189209
1.56600189209
1.56600189209
1.55599975586
1.55599975586
1.55599975586
1.54499816895
1.54499816895
1.54499816895
1.53500366211
1.53500366211
1.53500366211
1.52500152588
1.52500152588
1.52500152588
1.51499938965
1.51499938965
1.51499938965
1.50499725342
1.50499725342
1.50499725342
1.49500274658
1.49500274658
1.49500274658
1.48500061035
1.48500061035
1.48500061035
1.47499847412
1.47499847412
1.47499847412
1.46499633789
1.46499633789
1.46499633789
1.45500183105
1.45500183105
1.45500183105
1.44400024414
1.44400024414
1.44400024414
1.43399810791
1.43399810791
1.43399810791
1.42400360107
1.42400360107
1.42400360107
1.41400146484
1.41400146484
1.41400146484
1.40399932861
1.40399932861
1.40399932861
1.39399719238
1.39399719238
1.39399719238
1.38400268555
1.38400268555
1.38400268555
1.37400054932
1.37400054932
1.37400054932
1.36399841309
1.36399841309
1.36399841309
1.35399627686
1.35399627686
1.35399627686
1.34300231934
1.34300231934
1.34300231934
1.33300018311
1.33300018311
1.33300018311
1.32299804688
1.32299804688
1.32299804688
1.31300354004
1.31300354004
1.31300354004
1.30300140381
1.30300140381
1.30300140381
1.29299926758
1.29299926758
1.29299926758
1.28299713135
1.28299713135
1.28299713135
1.27300262451
1.27300262451
1.27300262451
1.26300048828
1.26300048828
1.26300048828
1.25299835205
1.25299835205
1.25299835205
1.24199676514
1.24199676514
1.24199676514
1.2320022583
1.2320022583
1.2320022583
1.22200012207
1.22200012207
1.22200012207
1.21199798584
1.21199798584
1.21199798584
1.202003479
1.202003479
1.202003479
1.19200134277
1.19200134277
1.19200134277
1.18199920654
1.18199920654
1.18199920654
1.17199707031
1.17199707031
1.17199707031
1.16200256348
1.16200256348
1.16200256348
1.15200042725
1.15200042725
1.15200042725
1.14099884033
1.14099884033
1.14099884033
1.1309967041
1.1309967041
1.1309967041
1.12100219727
1.12100219727
1.12100219727
1.11100006104
1.11100006104
1.11100006104
1.1009979248
1.1009979248
1.1009979248
1.09100341797
1.09100341797
1.09100341797
1.08100128174
1.08100128174
1.08100128174
1.07099914551
1.07099914551
1.07099914551
1.06099700928
1.06099700928
1.06099700928
1.05100250244
1.05100250244
1.05100250244
1.04000091553
1.04000091553
1.04000091553
1.0299987793
1.0299987793
1.0299987793
1.01999664307
1.01999664307
1.01999664307
1.01000213623
1.01000213623
1.01000213623
SCALARS FREE_SURFACE____
float
LOOKUP_TABLE default
102.0
102.0
102.0
102.0
102.0
102.0
102.0
102.0
102.0
102.0
102.0
102.0
102.0
102.0
102.0
102.0
102.0
102.0
102.0
102.0
102.0
102.0
102.0
102.0
102.0
102.0
102.0
102.0
102.0
102.0
102.0
102.0
102.0
102.0
102.0
102.0
102.0
102.0
102.0
102.0
102.0
102.0
102.0
102.0
102.0
102.0
102.0
102.0
102.0
102.0
102.0
102.0
102.0
102.0
102.0
102.0
102.0
102.0
102.0
102.0
102.0
102.0
102.0
102.0
102.0
102.0
102.0
102.0
102.0
102.0
102.0
102.0
102.0
102.0
102.0
102.0
102.0
102.0
102.0
102.0
102.0
102.0
102.0
102.0
102.0
102.0
102.0
102.0
102.0
102.0
102.0
102.0
102.0
102.0
102.0
102.0
102.0
102.0
102.0
102.0
102.0
102.0
102.0
102.0
102.0
102.0
102.0
102.0
102.0
102.0
102.0
102.0
102.0
102.0
102.0
102.0
102.0
102.0
102.0
102.0
102.0
102.0
102.0
102.0
102.0
102.0
102.0
102.0
102.0
102.0
102.0
102.0
102.0
102.0
102.0
102.0
102.0
102.0
102.0
102.0
102.0
102.0
102.0
102.0
102.0
102.0
102.0
102.0
102.0
102.0
102.0
102.0
102.0
102.0
102.0
102.0
102.0
102.0
102.0
102.0
102.0
102.0
102.0
102.0
102.0
102.0
102.0
102.0
102.0
102.0
102.0
102.0
102.0
102.0
102.0
102.0
102.0
102.0
102.0
102.0
102.0
102.0
102.0
102.0
102.0
102.0
102.0
102.0
102.0
102.0
102.0
102.0
102.0
102.0
102.0
102.0
102.0
102.0
102.0
102.0
102.0
102.0
102.0
102.0
102.0
102.0
102.0
102.0
102.0
102.0
102.0
102.0
102.0
102.0
102.0
102.0
102.0
102.0
102.0
102.0
102.0
102.0
102.0
102.0
102.0
102.0
102.0
102.0
102.0
102.0
102.0
102.0
102.0
102.0
102.0
102.0
102.0
102.0
102.0
102.0
102.0
102.0
102.0
102.0
102.0
102.0
102.0
102.0
102.0
102.0
102.0
102.0
102.0
102.0
102.0
102.0
102.0
102.0
102.0
102.0
102.0
102.0
102.0
102.0
102.0
102.0
102.0
102.0
102.0
102.0
102.0
102.0
102.0
102.0
102.0
102.0
102.0
102.0
102.0
102.0
102.0
102.0
102.0
102.0
102.0
102.0
102.0
102.0
102.0
102.0
102.0
102.0
102.0
102.0
102.0
102.0
102.0
102.0
102.0
102.0
102.0
102.0
102.0
102.0
102.0
102.0
102.0
102.0
102.0
102.0
102.0
102.0
102.0
102.0
102.0
102.0
102.0
102.0
102.0
102.0
102.0
102.0
102.0
102.0
102.0
102.0
102.0
102.0
102.0
102.0
102.0
102.0
102.0
102.0
102.0
102.0
102.0
102.0
102.0
102.0
102.0
102.0
102.0
102.0
102.0
102.0
102.0
102.0
102.0
102.0
102.0
102.0
102.0
102.0
102.0
102.0
102.0
102.0
102.0
102.0
102.0
102.0
102.0
102.0
102.0
102.0
102.0
102.0
102.0
102.0
102.0
102.0
102.0
102.0
102.0
102.0
102.0
102.0
102.0
102.0
102.0
102.0
102.0
102.0
102.0
102.0
102.0
102.0
102.0
102.0
102.0
102.0
102.0
102.0
102.0
102.0
102.0
102.0
102.0
102.0
102.0
102.0
102.0
102.0
102.0
102.0
102.0
102.0
102.0
102.0
102.0
102.0
102.0
102.0
102.0
102.0
102.0
102.0
102.0
102.0
102.0
102.0
102.0
102.0
102.0
102.0
102.0
102.0
102.0
102.0
102.0
102.0
102.0
102.0
102.0
102.0
102.0
102.0
102.0
102.0
102.0
102.0
102.0
102.0
102.0
102.0
102.0
102.0
102.0
102.0
102.0
102.0
102.0
102.0
102.0
102.0
102.0
102.0
102.0
102.0
102.0
102.0
102.0
102.0
102.0
102.0
102.0
102.0
102.0
102.0
102.0
102.0
102.0
102.0
102.0
102.0
102.0
102.0
102.0
102.0
102.0
102.0
102.0
102.0
102.0
102.0
102.0
102.0
102.0
102.0
102.0
102.0
102.0
102.0
102.0
102.0
102.0
102.0
102.0
102.0
SCALARS BOTTOM__________
float
LOOKUP_TABLE default
100.0
100.0
101.0
101.0
100.010002136
100.019996643
100.029998779
100.040000916
100.051002502
100.060997009
100.070999146
100.081001282
100.091003418
100.100997925
100.111000061
100.121002197
100.130996704
100.14099884
100.152000427
100.162002563
100.17199707
100.181999207
100.192001343
100.202003479
100.211997986
100.222000122
100.232002258
100.241996765
100.252998352
100.263000488
100.273002625
100.282997131
100.292999268
100.303001404
100.31300354
100.322998047
100.333000183
100.343002319
100.353996277
100.363998413
100.374000549
100.384002686
100.393997192
100.403999329
100.414001465
100.424003601
100.433998108
100.444000244
100.455001831
100.464996338
100.474998474
100.48500061
100.495002747
100.504997253
100.51499939
100.525001526
100.535003662
100.544998169
100.555999756
100.566001892
100.575996399
100.585998535
100.596000671
100.606002808
100.615997314
100.625999451
100.636001587
100.646003723
100.656997681
100.666999817
100.677001953
100.68699646
100.696998596
100.707000732
100.717002869
100.726997375
100.736999512
100.747001648
100.758003235
100.767997742
100.777999878
100.788002014
100.797996521
100.807998657
100.818000793
100.82800293
100.837997437
100.847999573
100.85900116
100.869003296
100.878997803
100.888999939
100.899002075
100.908996582
100.918998718
100.929000854
100.939002991
100.948997498
100.959999084
100.970001221
100.980003357
100.989997864
101.0
101.0
101.0
100.989997864
100.980003357
100.970001221
100.959999084
100.948997498
100.939002991
100.929000854
100.918998718
100.908996582
100.899002075
100.888999939
100.878997803
100.869003296
100.85900116
100.847999573
100.837997437
100.82800293
100.818000793
100.807998657
100.797996521
100.788002014
100.777999878
100.767997742
100.758003235
100.747001648
100.736999512
100.726997375
100.717002869
100.707000732
100.696998596
100.68699646
100.677001953
100.666999817
100.656997681
100.646003723
100.636001587
100.625999451
100.615997314
100.606002808
100.596000671
100.585998535
100.575996399
100.566001892
100.555999756
100.544998169
100.535003662
100.525001526
100.51499939
100.504997253
100.495002747
100.48500061
100.474998474
100.464996338
100.455001831
100.444000244
100.433998108
100.424003601
100.414001465
100.403999329
100.393997192
100.384002686
100.374000549
100.363998413
100.353996277
100.343002319
100.333000183
100.322998047
100.31300354
100.303001404
100.292999268
100.282997131
100.273002625
100.263000488
100.252998352
100.241996765
100.232002258
100.222000122
100.211997986
100.202003479
100.192001343
100.181999207
100.17199707
100.162002563
100.152000427
100.14099884
100.130996704
100.121002197
100.111000061
100.100997925
100.091003418
100.081001282
100.070999146
100.060997009
100.051002502
100.040000916
100.029998779
100.019996643
100.010002136
100.0
100.0
100.0
100.010002136
100.010002136
100.010002136
100.019996643
100.019996643
100.019996643
100.029998779
100.029998779
100.029998779
100.040000916
100.040000916
100.040000916
100.051002502
100.051002502
100.051002502
100.060997009
100.060997009
100.060997009
100.070999146
100.070999146
100.070999146
100.081001282
100.081001282
100.081001282
100.091003418
100.091003418
100.091003418
100.100997925
100.100997925
100.100997925
100.111000061
100.111000061
100.111000061
100.121002197
100.121002197
100.121002197
100.130996704
100.130996704
100.130996704
100.14099884
100.14099884
100.14099884
100.152000427
100.152000427
100.152000427
100.162002563
100.162002563
100.162002563
100.17199707
100.17199707
100.17199707
100.181999207
100.181999207
100.181999207
100.192001343
100.192001343
100.192001343
100.202003479
100.202003479
100.202003479
100.211997986
100.211997986
100.211997986
100.222000122
100.222000122
100.222000122
100.232002258
100.232002258
100.232002258
100.241996765
100.241996765
100.241996765
100.252998352
100.252998352
100.252998352
100.263000488
100.263000488
100.263000488
100.273002625
100.273002625
100.273002625
100.282997131
100.282997131
100.282997131