# vtk DataFile Version 3.0
Created with pputils
ASCII

DATASET UNSTRUCTURED_GRID
POINTS 500 float
0.000 0.000 0.000
0.000 10.000 0.000
1000.000 0.000 0.000
1000.000 10.000 0.000
10.101 0.000 0.000
20.202 0.000 0.000
30.303 0.000 0.000
40.404 0.000 0.000
50.505 0.000 0.000
60.606 0.000 0.000
70.707 0.000 0.000
80.808 0.000 0.000
90.909 0.000 0.000
101.010 0.000 0.000
111.111 0.000 0.000
121.212 0.000 0.000
131.313 0.000 0.000
141.414 0.000 0.000
151.515 0.000 0.000
161.616 0.000 0.000
171.717 0.000 0.000
181.818 0.000 0.000
191.919 0.000 0.000
202.020 0.000 0.000
212.121 0.000 0.000
222.222 0.000 0.000
232.323 0.000 0.000
242.424 0.000 0.000
252.525 0.000 0.000
262.626 0.000 0.000
272.727 0.000 0.000
282.828 0.000 0.000
292.929 0.000 0.000
303.030 0.000 0.000
313.131 0.000 0.000
323.232 0.000 0.000
333.333 0.000 0.000
343.434 0.000 0.000
353.535 0.000 0.000
363.636 0.000 0.000
373.737 0.000 0.000
383.838 0.000 0.000
393.939 0.000 0.000
404.040 0.000 0.000
414.141 0.000 0.000
424.242 0.000 0.000
434.343 0.000 0.000
444.444 0.000 0.000
454.545 0.000 0.000
464.646 0.000 0.000
474.747 0.000 0.000
484.848 0.000 0.000
494.949 0.000 0.000
505.051 0.000 0.000
515.152 0.000 0.000
525.253 0.000 0.000
535.354 0.000 0.000
545.455 0.000 0.000
555.556 0.000 0.000
565.657 0.000 0.000
575.758 0.000 0.000
585.859 0.000 0.000
595.960 0.000 0.000
606.061 0.000 0.000
616.162 0.000 0.000
626.263 0.000 0.000
636.364 0.000 0.000
646.465 0.000 0.000
656.566 0.000 0.000
666.667 0.000 0.000
676.768 0.000 0.000
686.869 0.000 0.000
696.970 0.000 0.000
707.071 0.000 0.000
717.172 0.000 0.000
727.273 0.000 0.000
737.374 0.000 0.000
747.475 0.000 0.000
757.576 0.000 0.000
767.677 0.000 0.000
777.778 0.000 0.000
787.879 0.000 0.000
797.980 0.000 0.000
808.081 0.000 0.000
818.182 0.000 0.000
828.283 0.000 0.000
838.384 0.000 0.000
848.485 0.000 0.000
858.586 0.000 0.000
868.687 0.000 0.000
878.788 0.000 0.000
888.889 0.000 0.000
898.990 0.000 0.000
909.091 0.000 0.000
919.192 0.000 0.000
929.293 0.000 0.000
939.394 0.000 0.000
949.495 0.000 0.000
959.596 0.000 0.000
969.697 0.000 0.000
979.798 0.000 0.000
989.899 0.000 0.000
1000.000 2.500 0.000
1000.000 5.000 0.000
1000.000 7.500 0.000
989.899 10.000 0.000
979.798 10.000 0.000
969.697 10.000 0.000
959.596 10.000 0.000
949.495 10.000 0.000
939.394 10.000 0.000
929.293 10.000 0.000
919.192 10.000 0.000
909.091 10.000 0.000
898.990 10.000 0.000
888.889 10.000 0.000
878.788 10.000 0.000
868.687 10.000 0.000
858.586 10.000 0.000
848.485 10.000 0.000
838.384 10.000 0.000
828.283 10.000 0.000
818.182 10.000 0.000
808.081 10.000 0.000
797.980 10.000 0.000
787.879 10.000 0.000
777.778 10.000 0.000
767.677 10.000 0.000
757.576 10.000 0.000
747.475 10.000 0.000
737.374 10.000 0.000
727.273 10.000 0.000
717.172 10.000 0.000
707.071 10.000 0.000
696.970 10.000 0.000
686.869 10.000 0.000
676.768 10.000 0.000
666.667 10.000 0.000
656.566 10.000 0.000
646.465 10.000 0.000
636.364 10.000 0.000
626.263 10.000 0.000
616.162 10.000 0.000
606.061 10.000 0.000
595.960 10.000 0.000
585.859 10.000 0.000
575.758 10.000 0.000
565.657 10.000 0.000
555.556 10.000 0.000
545.455 10.000 0.000
535.354 10.000 0.000
525.253 10.000 0.000
515.152 10.000 0.000
505.051 10.000 0.000
494.949 10.000 0.000
484.848 10.000 0.000
474.747 10.000 0.000
464.646 10.000 0.000
454.545 10.000 0.000
444.444 10.000 0.000
434.343 10.000 0.000
424.242 10.000 0.000
414.141 10.000 0.000
404.040 10.000 0.000
393.939 10.000 0.000
383.838 10.000 0.000
373.737 10.000 0.000
363.636 10.000 0.000
353.535 10.000 0.000
343.434 10.000 0.000
333.333 10.000 0.000
323.232 10.000 0.000
313.131 10.000 0.000
303.030 10.000 0.000
292.929 10.000 0.000
282.828 10.000 0.000
272.727 10.000 0.000
262.626 10.000 0.000
252.525 10.000 0.000
242.424 10.000 0.000
232.323 10.000 0.000
222.222 10.000 0.000
212.121 10.000 0.000
202.020 10.000 0.000
191.919 10.000 0.000
181.818 10.000 0.000
171.717 10.000 0.000
161.616 10.000 0.000
151.515 10.000 0.000
141.414 10.000 0.000
131.313 10.000 0.000
121.212 10.000 0.000
111.111 10.000 0.000
101.010 10.000 0.000
90.909 10.000 0.000
80.808 10.000 0.000
70.707 10.000 0.000
60.606 10.000 0.000
50.505 10.000 0.000
40.404 10.000 0.000
30.303 10.000 0.000
20.202 10.000 0.000
10.101 10.000 0.000
0.000 7.500 0.000
0.000 5.000 0.000
0.000 2.500 0.000
10.101 2.500 0.000
10.101 5.000 0.000
10.101 7.500 0.000
20.202 2.500 0.000
20.202 5.000 0.000
20.202 7.500 0.000
30.303 2.500 0.000
30.303 5.000 0.000
30.303 7.500 0.000
40.404 2.500 0.000
40.404 5.000 0.000
40.404 7.500 0.000
50.505 2.500 0.000
50.505 5.000 0.000
50.505 7.500 0.000
60.606 2.500 0.000
60.606 5.000 0.000
60.606 7.500 0.000
70.707 2.500 0.000
70.707 5.000 0.000
70.707 7.500 0.000
80.808 2.500 0.000
80.808 5.000 0.000
80.808 7.500 0.000
90.909 2.500 0.000
90.909 5.000 0.000
90.909 7.500 0.000
101.010 2.500 0.000
101.010 5.000 0.000
101.010 7.500 0.000
111.111 2.500 0.000
111.111 5.000 0.000
111.111 7.500 0.000
121.212 2.500 0.000
121.212 5.000 0.000
121.212 7.500 0.000
131.313 2.500 0.000
131.313 5.000 0.000
131.313 7.500 0.000
141.414 2.500 0.000
141.414 5.000 0.000
141.414 7.500 0.000
151.515 2.500 0.000
151.515 5.000 0.000
151.515 7.500 0.000
161.616 2.500 0.000
161.616 5.000 0.000
161.616 7.500 0.000
171.717 2.500 0.000
171.717 5.000 0.000
171.717 7.500 0.000
181.818 2.500 0.000
181.818 5.000 0.000
181.818 7.500 0.000
191.919 2.500 0.000
191.919 5.000 0.000
191.919 7.500 0.000
202.020 2.500 0.000
202.020 5.000 0.000
202.020 7.500 0.000
212.121 2.500 0.000
212.121 5.000 0.000
212.121 7.500 0.000
222.222 2.500 0.000
222.222 5.000 0.000
222.222 7.500 0.000
232.323 2.500 0.000
232.323 5.000 0.000
232.323 7.500 0.000
242.424 2.500 0.000
242.424 5.000 0.000
242.424 7.500 0.000
252.525 2.500 0.000
252.525 5.000 0.000
252.525 7.500 0.000
262.626 2.500 0.000
262.626 5.000 0.000
262.626 7.500 0.000
272.727 2.500 0.000
272.727 5.000 0.000
272.727 7.500 0.000
282.828 2.500 0.000
282.828 5.000 0.000
282.828 7.500 0.000
292.929 2.500 0.000
292.929 5.000 0.000
292.929 7.500 0.000
303.030 2.500 0.000
303.030 5.000 0.000
303.030 7.500 0.000
313.131 2.500 0.000
313.131 5.000 0.000
313.131 7.500 0.000
323.232 2.500 0.000
323.232 5.000 0.000
323.232 7.500 0.000
333.333 2.500 0.000
333.333 5.000 0.000
333.333 7.500 0.000
343.434 2.500 0.000
343.434 5.000 0.000
343.434 7.500 0.000
353.535 2.500 0.000
353.535 5.000 0.000
353.535 7.500 0.000
363.636 2.500 0.000
363.636 5.000 0.000
363.636 7.500 0.000
373.737 2.500 0.000
373.737 5.000 0.000
373.737 7.500 0.000
383.838 2.500 0.000
383.838 5.000 0.000
383.838 7.500 0.000
393.939 2.500 0.000
393.939 5.000 0.000
393.939 7.500 0.000
404.040 2.500 0.000
404.040 5.000 0.000
404.040 7.500 0.000
414.141 2.500 0.000
414.141 5.000 0.000
414.141 7.500 0.000
424.242 2.500 0.000
424.242 5.000 0.000
424.242 7.500 0.000
434.343 2.500 0.000
434.343 5.000 0.000
434.343 7.500 0.000
444.444 2.500 0.000
444.444 5.000 0.000
444.444 7.500 0.000
454.545 2.500 0.000
454.545 5.000 0.000
454.545 7.500 0.000
464.646 2.500 0.000
464.646 5.000 0.000
464.646 7.500 0.000
474.747 2.500 0.000
474.747 5.000 0.000
474.747 7.500 0.000
484.848 2.500 0.000
484.848 5.000 0.000
484.848 7.500 0.000
494.949 2.500 0.000
494.949 5.000 0.000
494.949 7.500 0.000
505.051 2.500 0.000
505.051 5.000 0.000
505.051 7.500 0.000
515.152 2.500 0.000
515.152 5.000 0.000
515.152 7.500 0.000
525.253 2.500 0.000
525.253 5.000 0.000
525.253 7.500 0.000
535.354 2.500 0.000
535.354 5.000 0.000
535.354 7.500 0.000
545.455 2.500 0.000
545.455 5.000 0.000
545.455 7.500 0.000
555.556 2.500 0.000
555.556 5.000 0.000
555.556 7.500 0.000
565.657 2.500 0.000
565.657 5.000 0.000
565.657 7.500 0.000
575.758 2.500 0.000
575.758 5.000 0.000
575.758 7.500 0.000
585.859 2.500 0.000
585.859 5.000 0.000
585.859 7.500 0.000
595.960 2.500 0.000
595.960 5.000 0.000
595.960 7.500 0.000
606.061 2.500 0.000
606.061 5.000 0.000
606.061 7.500 0.000
616.162 2.500 0.000
616.162 5.000 0.000
616.162 7.500 0.000
626.263 2.500 0.000
626.263 5.000 0.000
626.263 7.500 0.000
636.364 2.500 0.000
636.364 5.000 0.000
636.364 7.500 0.000
646.465 2.500 0.000
646.465 5.000 0.000
646.465 7.500 0.000
656.566 2.500 0.000
656.566 5.000 0.000
656.566 7.500 0.000
666.667 2.500 0.000
666.667 5.000 0.000
666.667 7.500 0.000
676.768 2.500 0.000
676.768 5.000 0.000
676.768 7.500 0.000
686.869 2.500 0.000
686.869 5.000 0.000
686.869 7.500 0.000
696.970 2.500 0.000
696.970 5.000 0.000
696.970 7.500 0.000
707.071 2.500 0.000
707.071 5.000 0.000
707.071 7.500 0.000
717.172 2.500 0.000
717.172 5.000 0.000
717.172 7.500 0.000
727.273 2.500 0.000
727.273 5.000 0.000
727.273 7.500 0.000
737.374 2.500 0.000
737.374 5.000 0.000
737.374 7.500 0.000
747.475 2.500 0.000
747.475 5.000 0.000
747.475 7.500 0.000
757.576 2.500 0.000
757.576 5.000 0.000
757.576 7.500 0.000
767.677 2.500 0.000
767.677 5.000 0.000
767.677 7.500 0.000
777.778 2.500 0.000
777.778 5.000 0.000
777.778 7.500 0.000
787.879 2.500 0.000
787.879 5.000 0.000
787.879 7.500 0.000
797.980 2.500 0.000
797.980 5.000 0.000
797.980 7.500 0.000
808.081 2.500 0.000
808.081 5.000 0.000
808.081 7.500 0.000
818.182 2.500 0.000
818.182 5.000 0.000
818.182 7.500 0.000
828.283 2.500 0.000
828.283 5.000 0.000
828.283 7.500 0.000
838.384 2.500 0.000
838.384 5.000 0.000
838.384 7.500 0.000
848.485 2.500 0.000
848.485 5.000 0.000
848.485 7.500 0.000
858.586 2.500 0.000
858.586 5.000 0.000
858.586 7.500 0.000
868.687 2.500 0.000
868.687 5.000 0.000
868.687 7.500 0.000
878.788 2.500 0.000
878.788 5.000 0.000
878.788 7.500 0.000
888.889 2.500 0.000
888.889 5.000 0.000
888.889 7.500 0.000
898.990 2.500 0.000
898.990 5.000 0.000
898.990 7.500 0.000
909.091 2.500 0.000
909.091 5.000 0.000
909.091 7.500 0.000
919.192 2.500 0.000
919.192 5.000 0.000
919.192 7.500 0.000
929.293 2.500 0.000
929.293 5.000 0.000
929.293 7.500 0.000
939.394 2.500 0.000
939.394 5.000 0.000
939.394 7.500 0.000
949.495 2.500 0.000
949.495 5.000 0.000
949.495 7.500 0.000
959.596 2.500 0.000
959.596 5.000 0.000
959.596 7.500 0.000
969.697 2.500 0.000
[...]
POINT_DATA 500
VECTORS Velocity float
-1.39935922623 2.72764827969e-05 0.0
-1.40104997158 -4.00160424761e-05 0.0
-1.49434244633 -0.0 0.0
-1.49434244633 -0.0 0.0
-1.40270709991 -3.11793191941e-05 0.0
-1.40658795834 2.42765490839e-05 0.0
-1.40985774994 -5.87939975958e-05 0.0
-1.41354250908 2.51084766205e-05 0.0
-1.41816937923 -3.54287221853e-05 0.0
-1.42144310474 -9.94404126686e-06 0.0
-1.42413544655 -4.1147472075e-05 0.0
-1.42722392082 -8.80667994352e-06 0.0
-1.42982375622 -1.09016127681e-05 0.0
-1.43265032768 -2.07052326004e-05 0.0
-1.4352697134 -2.17240376514e-05 0.0
-1.43792808056 7.33876822778e-06 0.0
-1.44050812721 5.2470177252e-06 0.0
-1.44313919544 1.65153633134e-05 0.0
-1.44713997841 -2.7880880225e-05 0.0
-1.44941163063 1.24592079374e-05 0.0
-1.45124804974 3.70846937585e-05 0.0
-1.45333647728 2.16781863855e-05 0.0
-1.45510184765 -2.01221246243e-05 0.0
-1.45705151558 -1.78728314495e-05 0.0
-1.45879864693 4.41591801064e-05 0.0
-1.46054399014 4.13707057305e-05 0.0
-1.46229970455 -2.85369897028e-05 0.0
-1.46411418915 -1.10806458906e-05 0.0
-1.46735620499 1.59089122462e-05 0.0
-1.46879124641 5.21969486726e-05 0.0
-1.46991503239 -4.81611368741e-06 0.0
-1.47137451172 -3.4798948036e-05 0.0
-1.47257316113 6.00192697675e-06 0.0
-1.473965168 2.69553038379e-05 0.0
-1.47519993782 8.46052716952e-06 0.0
-1.47644305229 -2.20777510549e-05 0.0
-1.47763741016 -2.25340463658e-05 0.0
-1.47884118557 3.20878061757e-05 0.0
-1.48147475719 8.62619401687e-07 0.0
-1.48233783245 -5.9532612795e-06 0.0
-1.48291122913 -1.54414155986e-05 0.0
-1.48384058475 7.91032448433e-07 0.0
-1.48454070091 1.10823721116e-05 0.0
-1.48549425602 -8.52442462929e-06 0.0
-1.48626244068 -6.18185731582e-06 0.0
-1.48700416088 4.33197510574e-06 0.0
-1.48770689964 4.38923689217e-06 0.0
-1.48848187923 1.86899669643e-05 0.0
-1.49072957039 -1.58278453455e-05 0.0
-1.49118316174 2.058017526e-05 0.0
-1.49143993855 1.12491870823e-05 0.0
-1.49207830429 -1.44740806718e-05 0.0
-1.49248123169 -2.1268438104e-06 0.0
-1.49310076237 6.83546704749e-06 0.0
-1.49355375767 -7.49422994772e-08 0.0
-1.49398386478 -1.14139693324e-05 0.0
-1.49435544014 -1.26939976326e-05 0.0
-1.4947810173 1.85555472854e-05 0.0
-1.49672114849 -1.89674592548e-05 0.0
-1.49687623978 -5.24842243976e-06 0.0
-1.49680459499 -9.44798102864e-06 0.0
-1.49716472626 -6.53930146655e-06 0.0
-1.49733185768 -5.11820690008e-06 0.0
-1.49774813652 -1.42746721394e-05 0.0
-1.49799227715 8.407144378e-06 0.0
-1.49826037884 1.19377109513e-05 0.0
-1.49849796295 -1.49146917465e-05 0.0
-1.4988026619 1.62110136444e-05 0.0
-1.50057351589 3.61428988072e-06 0.0
-1.50048983097 9.52057507675e-06 0.0
-1.50016987324 -4.2252268031e-06 0.0
-1.50029122829 -8.90495698513e-07 0.0
-1.50033259392 1.15224465844e-05 0.0
-1.50073230267 -1.73396347236e-05 0.0
-1.50103211403 -4.55011377198e-06 0.0
-1.5013166666 -3.37952260452e-05 0.0
-1.5014975071 -6.78801152389e-05 0.0
-1.50165486336 -3.49593974533e-05 0.0
-1.503215909 -5.08392513439e-05 0.0
-1.50291693211 -1.43823172039e-05 0.0
-1.50249564648 -5.22970767634e-05 0.0
-1.50262415409 4.02789646614e-06 0.0
-1.50266706944 -3.67902721337e-05 0.0
-1.50302529335 1.73259250005e-05 0.0
-1.50322926044 -5.74408550165e-05 0.0
-1.5032916069 8.88349768502e-06 0.0
-1.50308811665 -5.52567835257e-05 0.0
-1.50265073776 3.55065094482e-05 0.0
-1.50370919704 -8.0033481936e-05 0.0
-1.50307691097 4.92892941111e-05 0.0
-1.50290501118 -0.000270927266683 0.0
-1.50340223312 0.0004346621281 0.0
-1.50414025784 -0.00073631486157 0.0
-1.50439941883 0.00109716574661 0.0
-1.50491511822 -0.00174825789873 0.0
-1.50455248356 0.00214776443318 0.0
-1.50434064865 -0.00156866118778 0.0
-1.50380802155 0.0014042792609 0.0
-1.50758457184 0.00149180123117 0.0
-1.51013433933 -0.00638106511906 0.0
-1.51239097118 0.0048115788959 0.0
-1.46329808235 0.00446754228324 0.0
-1.49434244633 -0.0 0.0
-1.49434244633 -0.0 0.0
-1.49434244633 -0.0 0.0
-1.54178655148 -0.00126835319679 0.0
-1.4435634613 -0.00178043730557 0.0
-1.49708759785 0.00933798775077 0.0
-1.49068903923 0.000439822179032 0.0
-1.51261782646 0.000703823810909 0.0
-1.50393509865 -0.000619736500084 0.0
-1.50419509411 -9.29901852942e-06 0.0
-1.50200581551 2.57579758909e-05 0.0
-1.50203275681 0.000166702637216 0.0
-1.50295841694 0.000220618807361 0.0
-1.50233948231 0.000161498159287 0.0
-1.50275373459 8.15902239992e-05 0.0
-1.5028373003 4.89239027957e-05 0.0
-1.50383520126 -3.41793884218e-06 0.0
-1.50335693359 2.50563152804e-05 0.0
-1.50274062157 -4.29397769039e-05 0.0
-1.50337898731 2.77135641227e-05 0.0
-1.50269520283 -2.3150994366e-06 0.0
-1.50254893303 4.26678925578e-05 0.0
-1.50213599205 -5.3089870562e-06 0.0
-1.5021071434 2.05455344258e-05 0.0
-1.50228214264 -3.95818315155e-05 0.0
-1.50261032581 3.21534826071e-05 0.0
-1.5030425787 -3.85901403206e-05 0.0
-1.50213825703 3.42077037203e-05 0.0
-1.50101697445 -6.81846868247e-05 0.0
-1.50146043301 1.04775272121e-05 0.0
-1.5007172823 -4.55499939562e-05 0.0
-1.50061023235 -8.31663783174e-06 0.0
-1.50021147728 -4.78716465295e-05 0.0
-1.50016856194 -3.90243121728e-06 0.0
-1.50025784969 -4.90418133268e-05 0.0
-1.50040781498 2.6181278372e-05 0.0
-1.50057661533 -3.75077943318e-05 0.0
-1.49946963787 4.07405168517e-05 0.0
-1.49826216698 -4.18501476815e-05 0.0
-1.49870121479 4.17481933255e-05 0.0
-1.4979954958 -1.86614124686e-05 0.0
-1.49789261818 1.00680863397e-05 0.0
-1.49743235111 -1.71046613104e-05 0.0
-1.49719083309 2.58751242654e-05 0.0
-1.49699628353 -3.447142808e-05 0.0
-1.49686121941 3.21528714267e-05 0.0
-1.49682116508 -3.82059843105e-05 0.0
-1.49552834034 3.47532004525e-05 0.0
-1.49420201778 -4.45064652013e-05 0.0
-1.49451220036 3.31665578415e-05 0.0
-1.4936426878 -3.7571273424e-05 0.0
-1.49335503578 9.97460483632e-06 0.0
-1.49268460274 -1.07525247586e-05 0.0
-1.49221360683 1.9926143068e-05 0.0
-1.49174952507 -4.17440096498e-05 0.0
-1.49133121967 3.56125783583e-05 0.0
-1.49096286297 -3.17836966133e-05 0.0
-1.48935449123 4.51670275652e-05 0.0
-1.48769414425 -4.19919997512e-05 0.0
-1.48767757416 3.19335485983e-05 0.0
-1.48648834229 -1.85277876881e-05 0.0
-1.48587596416 2.05479973374e-05 0.0
-1.48490250111 -1.86940742424e-05 0.0
-1.48415207863 2.53320031334e-05 0.0
-1.48339903355 -2.67485556833e-05 0.0
-1.48262655735 2.20203019126e-05 0.0
-1.48189711571 -3.78227814508e-05 0.0
-1.4798913002 5.99462255195e-05 0.0
-1.47778666019 -4.25994985562e-05 0.0
-1.47725403309 8.82707900018e-06 0.0
-1.47563505173 -2.41073576035e-05 0.0
-1.47459113598 4.32601118519e-05 0.0
-1.47313046455 -1.25360065795e-05 0.0
-1.47188460827 -6.68305574436e-06 0.0
-1.47064459324 -3.94578783016e-05 0.0
-1.46934378147 6.5699685365e-05 0.0
-1.4679633379 -1.65393284988e-05 0.0
-1.46532893181 1.48380704559e-05 0.0
-1.4626994133 -6.09847811575e-05 0.0
-1.4616587162 5.78115104872e-05 0.0
-1.45949399471 2.42798819272e-06 0.0
-1.45794332027 -2.5472525067e-06 0.0
-1.45600879192 -4.35539041064e-05 0.0
-1.4542235136 3.04934474116e-05 0.0
-1.45230770111 -4.87307897856e-06 0.0
-1.45024454594 2.47411535383e-05 0.0
-1.44810259342 -5.93190270592e-05 0.0
-1.44469094276 3.5200300772e-05 0.0
-1.4412702322 -2.99985276797e-05 0.0
-1.43933272362 2.62221892626e-05 0.0
-1.43634212017 -4.31657645095e-05 0.0
-1.43393051624 -1.02211806734e-05 0.0
-1.43113958836 -1.0045810086e-05 0.0
-1.42845034599 -6.62130514684e-06 0.0
-1.42564284801 -3.70783309336e-05 0.0
-1.42266702652 7.80288132773e-07 0.0
-1.41966712475 -4.43538920081e-05 0.0
-1.41539180279 2.68781004706e-05 0.0
-1.41122663021 -6.33056333754e-05 0.0
-1.40829312801 5.93670347371e-06 0.0
-1.40448498726 -3.55596785084e-05 0.0
-1.40021729469 -2.04688240046e-05 0.0
-1.4001891613 -6.11706127529e-05 0.0
-1.400218606 -5.87696740695e-06 0.0
-1.40369296074 -6.50613146718e-05 0.0
-1.40361070633 -7.86313903518e-05 0.0
-1.40356242657 -5.72906974412e-05 0.0
-1.40743815899 -1.22245437524e-05 0.0
-1.40742456913 -4.92245380883e-05 0.0
-1.40735602379 -7.80237587605e-06 0.0
-1.41061198711 -0.000113208661787 0.0
-1.41056060791 -0.000135077687446 0.0
-1.4105437994 -7.57203088142e-05 0.0
-1.41452753544 -4.67696954729e-05 0.0
-1.41444945335 -7.61729897931e-05 0.0
-1.41439688206 -4.35071669926e-05 0.0
-1.41893923283 -6.31170187262e-05 0.0
-1.41894257069 -9.73825299297e-05 0.0
-1.41886651516 -6.16582401562e-05 0.0
-1.42207348347 -5.93926924921e-05 0.0
-1.42206048965 -0.000104985345388 0.0
-1.42204284668 -6.32144510746e-05 0.0
-1.42494463921 -7.77675231802e-05 0.0
-1.42490303516 -0.00011857283971 0.0
-1.42487168312 -7.06888968125e-05 0.0
-1.42785084248 -3.73910952476e-05 0.0
-1.42782318592 -6.70124427415e-05 0.0
-1.42778241634 -2.6019910365e-05 0.0
-1.43054449558 -6.53852330288e-05 0.0
-1.43050086498 -8.05757008493e-05 0.0
-1.43047523499 -6.49687208352e-05 0.0
-1.43330335617 -1.90362479771e-05 0.0
-1.43327486515 -6.05042696407e-05 0.0
-1.43323326111 -1.46130678331e-05 0.0
-1.43590295315 -8.01397545729e-05 0.0
-1.43583095074 -7.7004195191e-05 0.0
-1.43578970432 -5.10933350597e-05 0.0
-1.43863880634 1.90980117623e-05 0.0
-1.4386125803 3.499020238e-07 0.0
-1.43854629993 3.02790631395e-05 0.0
-1.4409430027 -5.17982371093e-05 0.0
-1.44089317322 -1.91779763554e-05 0.0
-1.44087696075 -3.98626843889e-06 0.0
-1.44398272038 3.89974275095e-06 0.0
-1.44391429424 -1.0859367876e-06 0.0
-1.44387435913 -7.49407581679e-06 0.0
-1.44763433933 -1.3621153812e-05 0.0
-1.44764697552 -8.06731077319e-06 0.0
-1.44755613804 3.92213369196e-05 0.0
-1.44984376431 -1.856333256e-05 0.0
-1.44983136654 1.81002360478e-05 0.0
-1.44982373714 2.84606485366e-05 0.0
-1.45179903507 5.41653707842e-06 0.0
-1.45176529884 4.35396323155e-05 0.0
-1.4517544508 3.11047697323e-05 0.0
-1.45377373695 2.52268982877e-05 0.0
-1.45376884937 4.59652146674e-05 0.0
-1.45375561714 4.27944978583e-05 0.0
-1.45561099052 -2.90663992928e-05 0.0
-1.45557880402 -7.90112062532e-06 0.0
-1.45556116104 -2.15309296436e-06 0.0
-1.45750081539 2.34970502788e-05 0.0
-1.45747339725 3.49488764186e-05 0.0
-1.45743727684 5.68903196836e-05 0.0
-1.4592114687 -1.72016571014e-05 0.0
-1.45914471149 4.98452100146e-05 0.0
-1.4591281414 2.40024164668e-05 0.0
-1.46107661724 7.00644013705e-05 0.0
-1.46107554436 7.5179610576e-05 0.0
-1.46104502678 4.98505396536e-05 0.0
-1.46254587173 -4.18574963987e-05 0.0
-1.46251881123 -2.76620557997e-05 0.0
-1.46251523495 -6.66383857606e-06 0.0
-1.46478664875 5.83362043471e-06 0.0
-1.46472001076 6.32906312603e-06 0.0
-1.46468234062 3.44125896845e-06 0.0
-1.46764457226 2.02153551072e-05 0.0
-1.46765995026 5.07562981511e-05 0.0
-1.46759045124 5.87403519603e-05 0.0
-1.46905708313 1.26727973111e-05 0.0
-1.46906089783 3.59430123353e-05 0.0
-1.46908831596 7.69912639953e-06 0.0
-1.47030925751 -8.84589371708e-06 0.0
-1.47028374672 -2.32302245422e-05 0.0
-1.47028028965 -2.30956538871e-05 0.0
-1.47165024281 -1.56278588292e-06 0.0
-1.4716271162 -1.66031695699e-05 0.0
-1.47159481049 7.816546713e-06 0.0
-1.47290718555 -1.88133326446e-05 0.0
-1.47285330296 5.63984303881e-06 0.0
-1.47282922268 -3.91281218981e-06 0.0
-1.47426187992 4.41724987468e-05 0.0
-1.47424292564 3.88016414945e-05 0.0
-1.47422337532 3.02669868688e-05 0.0
-1.47548294067 -4.02508012485e-05 0.0
-1.47544169426 -3.53104878741e-05 0.0
-1.4754267931 -3.78839540645e-05 0.0
-1.47683477402 2.53273301496e-05 0.0
-1.47684693336 -8.12650250737e-06 0.0
-1.47679924965 7.99830468168e-06 0.0
-1.4777354002 -4.4354936108e-05 0.0
-1.47772312164 -2.07773664442e-05 0.0
-1.47772574425 -6.72842679705e-06 0.0
-1.4793869257 2.57501760643e-05 0.0
-1.47935938835 1.89133843378e-05 0.0
-1.47935855389 -4.83096800963e-06 0.0
-1.48165798187 1.32671914344e-07 0.0
-1.48170948029 -1.25170927276e-05 0.0
-1.48166394234 1.36921598823e-05 0.0
-1.48248672485 -2.43759477598e-05 0.0
-1.48249208927 -1.8790611648e-05 0.0
-1.48251461983 -2.22933849727e-05 0.0
-1.48318052292 -1.11639258193e-06 0.0
-1.48314595222 2.7292426239e-06 0.0
-1.48314166069 -8.76938793226e-06 0.0
-1.4839990139 2.83410299744e-05 0.0
-1.48398160934 1.7744001525e-05 0.0
-1.48396611214 2.17123670154e-05 0.0
-1.48477816582 -1.8192202333e-05 0.0
-1.48473143578 -1.02165859062e-05 0.0
-1.48471474648 -1.57780905283e-05 0.0
-1.48568117619 2.93325429084e-05 0.0
-1.48565876484 2.91988417302e-05 0.0
-1.48562729359 2.62236080744e-05 0.0
-1.4864294529 -1.87167242984e-05 0.0
-1.48639416695 8.67298058438e-06 0.0
-1.4863768816 -9.48279830482e-06 0.0
-1.48729813099 6.14756499999e-05 0.0
-1.48733556271 3.29634349328e-05 0.0
-1.48730742931 4.34401008533e-05 0.0
-1.48771870136 -4.9157988542e-05 0.0
-1.48771965504 -2.18670047616e-05 0.0
-1.48774075508 9.40792517667e-07 0.0
-1.48894393444 1.43728211697e-05 0.0
-1.48891270161 2.46739637078e-05 0.0
-1.48891270161 2.33524218629e-07 0.0
-1.49081146717 1.25352589748e-05 0.0
-1.49086201191 1.45814719872e-05 0.0
-1.49081897736 3.68510991393e-05 0.0
-1.49125671387 -1.42700773722e-05 0.0
-1.4912635088 -1.83984502655e-05 0.0
-1.49129652977 -1.03421598396e-05 0.0
-1.49162995815 -2.15298623516e-05 0.0
-1.49158740044 -2.2178493964e-05 0.0
-1.49158143997 -1.10755263449e-05 0.0
-1.4921541214 2.56352882388e-06 0.0
-1.49212825298 1.04121227196e-05 0.0
-1.49210572243 1.79407652467e-05 0.0
-1.49263226986 -2.70795135293e-05 0.0
-1.49259316921 -2.29195920838e-05 0.0
-1.49257647991 -2.80064723484e-05 0.0
-1.4932192564 1.96524306375e-05 0.0
-1.49321377277 -1.66097652254e-05 0.0
-1.49318289757 9.38522043725e-06 0.0
-1.4936580658 -5.78895305807e-05 0.0
-1.49362933636 -3.87784639315e-05 0.0
-1.4936093092 -2.81768661807e-05 0.0
-1.49421048164 2.05910164368e-05 0.0
-1.49424779415 2.25633243645e-06 0.0
-1.49421834946 6.09912240179e-06 0.0
-1.49429690838 -5.97801736149e-05 0.0
-1.49430537224 -6.40914804535e-05 0.0
-1.49432325363 -4.07752486353e-05 0.0
-1.49518823624 4.73656018585e-06 0.0
-1.49516117573 -2.52257887041e-05 0.0
-1.49515521526 -2.73173591268e-05 0.0
-1.49675011635 -1.19859732877e-05 0.0
-1.49679338932 -1.2607159988e-05 0.0
-1.49674391747 6.64045728627e-06 0.0
-1.49687790871 -1.75250115717e-05 0.0
-1.49687838554 -2.10163670999e-05 0.0
-1.4969035387 -4.10298453062e-05 0.0
-1.49693787098 1.01488112705e-05 0.0
-1.49689984322 -1.2210875866e-05 0.0
-1.49688637257 -1.38622945087e-05 0.0
-1.49719274044 3.01224845316e-05 0.0
-1.49717307091 3.17857375194e-05 0.0
-1.49714529514 3.59730438504e-05 0.0
-1.4974411726 -6.5627928052e-06 0.0
-1.49740707874 1.85088265425e-05 0.0
-1.49738430977 -6.27937561148e-06 0.0
-1.49781847 5.07985132572e-05 0.0
-1.49782347679 3.37024066539e-05 0.0
-1.49778532982 3.89836131944e-05 0.0
-1.49806201458 -2.24247924052e-05 0.0
-1.49804627895 2.5137958346e-06 0.0
-1.49801945686 8.21538014861e-06 0.0
-1.49845659733 4.49337385362e-05 0.0
-1.49850344658 3.82411926694e-05 0.0
-1.49846315384 4.32827291661e-05 0.0
-1.49841380119 -3.98912161472e-05 0.0
-1.49843144417 -2.53073321801e-05 0.0
-1.49843466282 -6.78309015711e-06 0.0
-1.49918305874 3.4812510421e-05 0.0
-1.49917125702 1.2880950635e-05 0.0
-1.49914646149 1.22047804325e-05 0.0
-1.50056266785 2.74177618849e-05 0.0
-1.50062799454 3.63337130693e-05 0.0
-1.50056052208 7.40821051295e-05 0.0
-1.5004607439 8.53933488543e-06 0.0
-1.50049042702 3.33826792485e-05 0.0
-1.50050616264 4.31925182056e-05 0.0
-1.50026583672 -5.75166586714e-06 0.0
-1.50025129318 -1.00920651676e-05 0.0
-1.500233531 2.71698008873e-05 0.0
-1.50028932095 -2.95295794785e-05 0.0
-1.50026464462 -6.23510422884e-05 0.0
-1.50021672249 1.37150773298e-05 0.0
-1.50040447712 -0.000107755622594 0.0
-1.50032389164 -0.000139996118378 0.0
-1.50025558472 -7.23208358977e-05 0.0
-1.5007584095 -6.40365178697e-05 0.0
-1.50068747997 -0.000149197920109 0.0
-1.50058710575 -7.33194028726e-05 0.0
-1.50103652477 -0.000107879677671 0.0
-1.50094282627 -0.000167876511114 0.0
-1.50083565712 -0.000125701379147 0.0
-1.50143957138 1.82863714144e-05 0.0
-1.50143802166 -7.28995219106e-05 0.0
-1.5013178587 -6.12584190094e-05 0.0
-1.50134539604 -2.76391274383e-05 0.0
-1.5013576746 -6.70613371767e-05 0.0
-1.50129830837 -7.14321868145e-05 0.0
-1.50197887421 6.89709340804e-05 0.0
-1.50200033188 7.86028067523e-06 0.0
-1.50194227695 -5.14304083481e-05 0.0
-1.5031670332 6.08399568591e-05 0.0
-1.50327861309 2.97318183584e-06 0.0
-1.50318157673 4.49399976787e-06 0.0
-1.50286030769 2.8186428608e-05 0.0
-1.50290942192 -6.58502040096e-06 0.0
-1.50288391113 -3.22847663483e-05 0.0
-1.50256717205 3.00041774608e-05 0.0
-1.50252914429 -1.99371042982e-05 0.0
-1.50243973732 -2.69162737823e-05 0.0
-1.50256145 6.3999381382e-05 0.0
-1.50248229504 4.56825400761e-05 0.0
-1.50234282017 1.50894211401e-05 0.0
-1.50264704227 7.40226823837e-05 0.0
-1.50251758099 6.30427821307e-05 0.0
-1.50237488747 -4.5021142796e-06 0.0
-1.50294530392 0.000149486630107 0.0
-1.5028449297 0.000131887136376 0.0
-1.50270318985 6.65740517434e-05 0.0
-1.5030990839 0.000113691035949 0.0
-1.50303089619 9.82926067081e-05 0.0
-1.50298178196 3.00798801618e-05 0.0
-1.50329315662 0.000182940304512 0.0
-1.50337159634 0.000137147319037 0.0
-1.50338566303 0.000137406517752 0.0
-1.50278365612 0.00011341112986 0.0
-1.50295972824 0.000139373529237 0.0
-1.50318849087 0.00010341774032 0.0
-1.50290036201 0.000166201687534 0.0
-1.50318181515 0.000134954330861 0.0
-1.50342512131 0.000157152477186 0.0
-1.50364100933 0.000166316342074 0.0
-1.50401198864 0.000257748208242 0.0
-1.50426411629 0.000144537436427 0.0
-1.50312411785 0.000182394680451 0.0
-1.50345647335 0.000105950792204 0.0
-1.50360023975 0.000120402008179 0.0
-1.50311338902 0.000252179335803 0.0
-1.50309896469 0.000372135196812 0.0
-1.50322878361 7.64580981922e-05 0.0
-1.50345599651 0.000352615694283 0.0
-1.50352752209 0.000336763070663 0.0
-1.50338685513 0.000172853469849 0.0
-1.50412559509 0.000723631004803 0.0
-1.50417363644 0.000789676094428 0.0
-1.50418531895 0.000277859071502 0.0
-1.50464951992 0.000227351556532 0.0
-1.50526309013 0.000821767433081 0.0
-1.50438797474 0.000565144524444 0.0
-1.50492739677 0.00132168433629 0.0
-1.50578069687 0.00063769571716 0.0
-1.50495946407 0.000410847656894 0.0
-1.50536978245 -0.000832250749227 0.0
-1.50553607941 0.00108645914588 0.0
-1.50462567806 0.000638649973553 0.0
-1.50267004967 0.00211517722346 0.0
-1.5033121109 -0.00137801328674 0.0
-1.50540661812 -0.000273540354101 0.0
-1.50315582752 -0.00137765868567 0.0
-1.50066912174 0.00356064923108 0.0
-1.5069963932 0.001669214922 0.0
-1.50387847424 0.00349935796112 0.0
-1.50302970409 -0.00153037020937 0.0
-1.50339436531 0.00134591537062 0.0
-1.50782191753 0.00215369393118 0.0
-1.50562131405 0.0106566427276 0.0
-1.50629746914 0.00116619607434 0.0
-1.52277100086 -0.0126024913043 0.0
-1.51829981804 -0.00230212882161 0.0
-1.48382866383 -0.0074561079964 0.0
-1.47313952446 -0.0120831793174 0.0
-1.52581453323 -0.0170243494213 0.0
-1.54473590851 -0.0123940426856 0.0
SCALARS WATER_DEPTH_____
float
LOOKUP_TABLE default
1.0
1.0
0.912811040878
0.968586266041
0.997426986694
0.994970738888
0.992606282234
0.990125536919
0.986811101437
0.984723687172
0.982625544071
0.980648636818
0.978705048561
0.976860225201
0.975090563297
0.973352849483
0.971746087074
0.969926595688
0.967331409454
0.965919792652
0.964494049549
0.963134288788
0.961820602417
0.960583567619
0.959406375885
0.958218574524
0.957164525986
0.955891668797
0.953807413578
0.952871799469
0.951935648918
0.951109290123
0.950303375721
0.949538826942
0.948833048344
0.948136568069
0.947514176369
0.946598172188
0.944882273674
0.944324553013
0.943747341633
0.943242967129
0.942770779133
0.942341446877
0.941941976547
0.941506326199
0.941152095795
0.940489947796
0.939027428627
0.93873167038
0.938407182693
0.938159286976
0.937930464745
0.937731206417
0.937535941601
0.937298774719
0.937116682529
0.936619400978
0.935308277607
0.93516010046
0.934988498688
0.934879362583
0.934785187244
0.934720814228
0.934674680233
0.934571146965
0.93452835083
0.934161186218
0.932969748974
0.932886719704
0.932761609554
0.932715833187
0.932708144188
0.932774603367
0.932883620262
0.932944893837
0.933014512062
0.932725727558
0.931568026543
0.931556105614
0.931503236294
0.931558072567
0.931646168232
0.931760907173
0.931917190552
0.931961119175
0.932072937489
0.931685090065
0.930503129959
0.930449664593
0.930517673492
0.930769383907
0.930973827839